# vtk DataFile Version 2.0
data/timeSh_0001.vtk
ASCII
DATASET UNSTRUCTURED_GRID
POINTS 441 float
5.00000e-01 5.00000e-01 0.00000e+00
4.50000e-01 5.00000e-01 0.00000e+00
4.00000e-01 5.00000e-01 0.00000e+00
3.50000e-01 5.00000e-01 0.00000e+00
3.00000e-01 5.00000e-01 0.00000e+00
2.50000e-01 5.00000e-01 0.00000e+00
2.00000e-01 5.00000e-01 0.00000e+00
1.50000e-01 5.00000e-01 0.00000e+00
1.00000e-01 5.00000e-01 0.00000e+00
5.00000e-02 5.00000e-01 0.00000e+00
0.00000e+00 5.00000e-01 0.00000e+00
-5.00000e-02 5.00000e-01 0.00000e+00
-1.00000e-01 5.00000e-01 0.00000e+00
-1.50000e-01 5.00000e-01 0.00000e+00
-2.00000e-01 5.00000e-01 0.00000e+00
-2.50000e-01 5.00000e-01 0.00000e+00
-3.00000e-01 5.00000e-01 0.00000e+00
-3.50000e-01 5.00000e-01 0.00000e+00
-4.00000e-01 5.00000e-01 0.00000e+00
-4.50000e-01 5.00000e-01 0.00000e+00
-5.00000e-01 5.00000e-01 0.00000e+00
5.00000e-01 4.50000e-01 0.00000e+00
4.50000e-01 4.50000e-01 -8.80472e-05
4.00000e-01 4.50000e-01 -3.41827e-04
3.50000e-01 4.50000e-01 -6.99149e-04
3.00000e-01 4.50000e-01 -1.06255e-03
2.50000e-01 4.50000e-01 -1.40234e-03
2.00000e-01 4.50000e-01 -1.69190e-03
1.50000e-01 4.50000e-01 -1.93432e-03
1.00000e-01 4.50000e-01 -2.12217e-03
5.00000e-02 4.50000e-01 -2.23660e-03
-1.90579e-14 4.50000e-01 -2.27179e-03
-5.00000e-02 4.50000e-01 -2.23547e-03
-1.00000e-01 4.50000e-01 -2.12195e-03
-1.50000e-01 4.50000e-01 -1.93514e-03
-2.00000e-01 4.50000e-01 -1.68888e-03
-2.50000e-01 4.50000e-01 -1.38890e-03
-3.00000e-01 4.50000e-01 -1.05268e-03
-3.50000e-01 4.50000e-01 -6.95387e-04
-4.00000e-01 4.50000e-01 -3.44726e-04
-4.50000e-01 4.50000e-01 -9.18273e-05
-5.00000e-01 4.50000e-01 0.00000e+00
5.00000e-01 4.00000e-01 0.00000e+00
4.50000e-01 4.00000e-01 -3.41488e-04
4.00000e-01 4.00000e-01 -1.25324e-03
3.50000e-01 4.00000e-01 -2.46246e-03
3.00000e-01 4.00000e-01 -3.74101e-03
2.50000e-01 4.00000e-01 -4.93460e-03
2.00000e-01 4.00000e-01 -5.99204e-03
1.50000e-01 4.00000e-01 -6.86920e-03
1.00000e-01 4.00000e-01 -7.52238e-03
5.00000e-02 4.00000e-01 -7.92443e-03
1.84046e-14 4.00000e-01 -8.05826e-03
-5.00000e-02 4.00000e-01 -7.92261e-03
-1.00000e-01 4.00000e-01 -7.51495e-03
-1.50000e-01 4.00000e-01 -6.86440e-03
-2.00000e-01 4.00000e-01 -5.99234e-03
-2.50000e-01 4.00000e-01 -4.92991e-03
-3.00000e-01 4.00000e-01 -3.71808e-03
-3.50000e-01 4.00000e-01 -2.45658e-03
-4.00000e-01 4.00000e-01 -1.24924e-03
-4.50000e-01 4.00000e-01 -3.39037e-04
-5.00000e-01 4.00000e-01 0.00000e+00
5.00000e-01 3.50000e-01 0.00000e+00
4.50000e-01 3.50000e-01 -7.02341e-04
4.00000e-01 3.50000e-01 -2.46913e-03
3.50000e-01 3.50000e-01 -4.76185e-03
3.00000e-01 3.50000e-01 -7.24823e-03
2.50000e-01 3.50000e-01 -9.61970e-03
2.00000e-01 3.50000e-01 -1.17028e-02
1.50000e-01 3.50000e-01 -1.34194e-02
1.00000e-01 3.50000e-01 -1.46998e-02
5.00000e-02 3.50000e-01 -1.54780e-02
1.10661e-14 3.50000e-01 -1.57382e-02
-5.00000e-02 3.50000e-01 -1.54744e-02
-1.00000e-01 3.50000e-01 -1.46933e-02
-1.50000e-01 3.50000e-01 -1.34230e-02
-2.00000e-01 3.50000e-01 -1.17181e-02
-2.50000e-01 3.50000e-01 -9.62046e-03
-3.00000e-01 3.50000e-01 -7.25272e-03
-3.50000e-01 3.50000e-01 -4.75755e-03
-4.00000e-01 3.50000e-01 -2.45162e-03
-4.50000e-01 3.50000e-01 -6.92581e-04
-5.00000e-01 3.50000e-01 0.00000e+00
5.00000e-01 3.00000e-01 0.00000e+00
4.50000e-01 3.00000e-01 -1.06178e-03
4.00000e-01 3.00000e-01 -3.73762e-03
3.50000e-01 3.00000e-01 -7.25201e-03
3.00000e-01 3.00000e-01 -1.10612e-02
2.50000e-01 3.00000e-01 -1.47158e-02
2.00000e-01 3.00000e-01 -1.79470e-02
1.50000e-01 3.00000e-01 -2.05872e-02
1.00000e-01 3.00000e-01 -2.25523e-02
5.00000e-02 3.00000e-01 -2.37645e-02
-1.08941e-14 3.00000e-01 -2.41753e-02
-5.00000e-02 3.00000e-01 -2.37757e-02
-1.00000e-01 3.00000e-01 -2.25640e-02
-1.50000e-01 3.00000e-01 -2.06055e-02
-2.00000e-01 3.00000e-01 -1.79509e-02
-2.50000e-01 3.00000e-01 -1.47193e-02
-3.00000e-01 3.00000e-01 -1.10698e-02
-3.50000e-01 3.00000e-01 -7.26136e-03
-4.00000e-01 3.00000e-01 -3.73038e-03
-4.50000e-01 3.00000e-01 -1.05488e-03
-5.00000e-01 3.00000e-01 0.00000e+00
5.00000e-01 2.50000e-01 0.00000e+00
4.50000e-01 2.50000e-01 -1.40017e-03
4.00000e-01 2.50000e-01 -4.94384e-03
3.50000e-01 2.50000e-01 -9.62598e-03
3.00000e-01 2.50000e-01 -1.47129e-02
2.50000e-01 2.50000e-01 -1.96364e-02
2.00000e-01 2.50000e-01 -2.40011e-02
1.50000e-01 2.50000e-01 -2.75712e-02
1.00000e-01 2.50000e-01 -3.02323e-02
5.00000e-02 2.50000e-01 -3.18735e-02
-1.43453e-14 2.50000e-01 -3.24253e-02
-5.00000e-02 2.50000e-01 -3.18854e-02
-1.00000e-01 2.50000e-01 -3.02596e-02
-1.50000e-01 2.50000e-01 -2.75875e-02
-2.00000e-01 2.50000e-01 -2.39874e-02
-2.50000e-01 2.50000e-01 -1.96375e-02
-3.00000e-01 2.50000e-01 -1.47437e-02
-3.50000e-01 2.50000e-01 -9.65661e-03
-4.00000e-01 2.50000e-01 -4.95393e-03
-4.50000e-01 2.50000e-01 -1.39745e-03
-5.00000e-01 2.50000e-01 0.00000e+00
5.00000e-01 2.00000e-01 0.00000e+00
4.50000e-01 2.00000e-01 -1.70102e-03
4.00000e-01 2.00000e-01 -6.01202e-03
3.50000e-01 2.00000e-01 -1.17245e-02
3.00000e-01 2.00000e-01 -1.79538e-02
2.50000e-01 2.00000e-01 -2.39988e-02
2.00000e-01 2.00000e-01 -2.93853e-02
1.50000e-01 2.00000e-01 -3.38186e-02
1.00000e-01 2.00000e-01 -3.71162e-02
5.00000e-02 2.00000e-01 -3.91537e-02
4.18164e-15 2.00000e-01 -3.98433e-02
-5.00000e-02 2.00000e-01 -3.91595e-02
-1.00000e-01 2.00000e-01 -3.71358e-02
-1.50000e-01 2.00000e-01 -3.38168e-02
-2.00000e-01 2.00000e-01 -2.93656e-02
-2.50000e-01 2.00000e-01 -2.40090e-02
-3.00000e-01 2.00000e-01 -1.79881e-02
-3.50000e-01 2.00000e-01 -1.17492e-02
-4.00000e-01 2.00000e-01 -6.01297e-03
-4.50000e-01 2.00000e-01 -1.69967e-03
-5.00000e-01 2.00000e-01 0.00000e+00
5.00000e-01 1.50000e-01 0.00000e+00
4.50000e-01 1.50000e-01 -1.93840e-03
4.00000e-01 1.50000e-01 -6.88257e-03
3.50000e-01 1.50000e-01 -1.34383e-02
3.00000e-01 1.50000e-01 -2.06156e-02
2.50000e-01 1.50000e-01 -2.75962e-02
2.00000e-01 1.50000e-01 -3.38230e-02
1.50000e-01 1.50000e-01 -3.89519e-02
1.00000e-01 1.50000e-01 -4.27906e-02
5.00000e-02 1.50000e-01 -4.51748e-02
1.36130e-14 1.50000e-01 -4.59783e-02
-5.00000e-02 1.50000e-01 -4.51821e-02
-1.00000e-01 1.50000e-01 -4.28017e-02
-1.50000e-01 1.50000e-01 -3.89474e-02
-2.00000e-01 1.50000e-01 -3.38031e-02
-2.50000e-01 1.50000e-01 -2.75854e-02
-3.00000e-01 1.50000e-01 -2.06233e-02
-3.50000e-01 1.50000e-01 -1.34415e-02
-4.00000e-01 1.50000e-01 -6.87888e-03
-4.50000e-01 1.50000e-01 -1.93958e-03
-5.00000e-01 1.50000e-01 0.00000e+00
5.00000e-01 1.00000e-01 0.00000e+00
4.50000e-01 1.00000e-01 -2.12131e-03
4.00000e-01 1.00000e-01 -7.51721e-03
3.50000e-01 1.00000e-01 -1.47028e-02
3.00000e-01 1.00000e-01 -2.25791e-02
2.50000e-01 1.00000e-01 -3.02616e-02
2.00000e-01 1.00000e-01 -3.71263e-02
1.50000e-01 1.00000e-01 -4.27868e-02
1.00000e-01 1.00000e-01 -4.70106e-02
5.00000e-02 1.00000e-01 -4.96517e-02
-5.73033e-15 1.00000e-01 -5.05548e-02
-5.00000e-02 1.00000e-01 -4.96500e-02
-1.00000e-01 1.00000e-01 -4.70180e-02
-1.50000e-01 1.00000e-01 -4.27750e-02
-2.00000e-01 1.00000e-01 -3.70960e-02
-2.50000e-01 1.00000e-01 -3.02310e-02
-3.00000e-01 1.00000e-01 -2.25653e-02
-3.50000e-01 1.00000e-01 -1.46991e-02
-4.00000e-01 1.00000e-01 -7.51754e-03
-4.50000e-01 1.00000e-01 -2.12287e-03
-5.00000e-01 1.00000e-01 0.00000e+00
5.00000e-01 5.00000e-02 0.00000e+00
4.50000e-01 5.00000e-02 -2.22975e-03
4.00000e-01 5.00000e-02 -7.90851e-03
3.50000e-01 5.00000e-02 -1.54763e-02
3.00000e-01 5.00000e-02 -2.37771e-02
2.50000e-01 5.00000e-02 -3.18827e-02
2.00000e-01 5.00000e-02 -3.91541e-02
1.50000e-01 5.00000e-02 -4.51615e-02
1.00000e-01 5.00000e-02 -4.96356e-02
5.00000e-02 5.00000e-02 -5.24157e-02
1.11074e-14 5.00000e-02 -5.33510e-02
-5.00000e-02 5.00000e-02 -5.24043e-02
-1.00000e-01 5.00000e-02 -4.96389e-02
-1.50000e-01 5.00000e-02 -4.51585e-02
-2.00000e-01 5.00000e-02 -3.91289e-02
-2.50000e-01 5.00000e-02 -3.18561e-02
-3.00000e-01 5.00000e-02 -2.37583e-02
-3.50000e-01 5.00000e-02 -1.54623e-02
-4.00000e-01 5.00000e-02 -7.91014e-03
-4.50000e-01 5.00000e-02 -2.23040e-03
-5.00000e-01 5.00000e-02 0.00000e+00
5.00000e-01 0.00000e+00 0.00000e+00
4.50000e-01 -1.11861e-15 -2.26208e-03
4.00000e-01 1.44974e-14 -8.04141e-03
3.50000e-01 4.65494e-15 -1.57382e-02
3.00000e-01 -7.15135e-15 -2.41858e-02
2.50000e-01 -8.91481e-15 -3.24306e-02
2.00000e-01 -1.42291e-14 -3.98301e-02
1.50000e-01 1.27126e-16 -4.59500e-02
1.00000e-01 2.51472e-14 -5.05414e-02
5.00000e-02 -1.89094e-14 -5.33638e-02
-1.21477e-14 1.11428e-14 -5.42955e-02
-5.00000e-02 -7.53105e-15 -5.33466e-02
-1.00000e-01 7.19177e-15 -5.05505e-02
-1.50000e-01 -3.97116e-16 -4.59645e-02
-2.00000e-01 -3.41432e-15 -3.98163e-02
-2.50000e-01 4.33996e-15 -3.23997e-02
-3.00000e-01 5.44721e-15 -2.41475e-02
-3.50000e-01 -4.17251e-15 -1.57129e-02
-4.00000e-01 -1.24669e-14 -8.03798e-03
-4.50000e-01 2.04239e-15 -2.27162e-03
-5.00000e-01 0.00000e+00 0.00000e+00
5.00000e-01 -5.00000e-02 0.00000e+00
4.50000e-01 -5.00000e-02 -2.22921e-03
4.00000e-01 -5.00000e-02 -7.91153e-03
3.50000e-01 -5.00000e-02 -1.54779e-02
3.00000e-01 -5.00000e-02 -2.37891e-02
2.50000e-01 -5.00000e-02 -3.18863e-02
2.00000e-01 -5.00000e-02 -3.91321e-02
1.50000e-01 -5.00000e-02 -4.51484e-02
1.00000e-01 -5.00000e-02 -4.96426e-02
5.00000e-02 -5.00000e-02 -5.24367e-02
-8.37259e-17 -5.00000e-02 -5.33682e-02
-5.00000e-02 -5.00000e-02 -5.24302e-02
-1.00000e-01 -5.00000e-02 -4.96465e-02
-1.50000e-01 -5.00000e-02 -4.51549e-02
-2.00000e-01 -5.00000e-02 -3.91321e-02
-2.50000e-01 -5.00000e-02 -3.18598e-02
-3.00000e-01 -5.00000e-02 -2.37573e-02
-3.50000e-01 -5.00000e-02 -1.54594e-02
-4.00000e-01 -5.00000e-02 -7.90883e-03
-4.50000e-01 -5.00000e-02 -2.23664e-03
-5.00000e-01 -5.00000e-02 0.00000e+00
5.00000e-01 -1.00000e-01 0.00000e+00
4.50000e-01 -1.00000e-01 -2.12303e-03
4.00000e-01 -1.00000e-01 -7.52760e-03
3.50000e-01 -1.00000e-01 -1.47185e-02
3.00000e-01 -1.00000e-01 -2.25863e-02
2.50000e-01 -1.00000e-01 -3.02454e-02
2.00000e-01 -1.00000e-01 -3.71100e-02
1.50000e-01 -1.00000e-01 -4.27736e-02
1.00000e-01 -1.00000e-01 -4.70117e-02
5.00000e-02 -1.00000e-01 -4.96350e-02
1.08803e-14 -1.00000e-01 -5.05522e-02
-5.00000e-02 -1.00000e-01 -4.96491e-02
[...]
POINT_DATA 441
SCALARS Mises float 1
LOOKUP_TABLE default
0.00000e+00
0.00000e+00
0.00000e+00
0.00000e+00
0.00000e+00
0.00000e+00
0.00000e+00
0.00000e+00
0.00000e+00
0.00000e+00
0.00000e+00
0.00000e+00
0.00000e+00
0.00000e+00
0.00000e+00
0.00000e+00
0.00000e+00
0.00000e+00
0.00000e+00
0.00000e+00
0.00000e+00
0.00000e+00
0.00000e+00
0.00000e+00
0.00000e+00
0.00000e+00
0.00000e+00
0.00000e+00
0.00000e+00
0.00000e+00
0.00000e+00
0.00000e+00
0.00000e+00
0.00000e+00
0.00000e+00
0.00000e+00
0.00000e+00
0.00000e+00
0.00000e+00
0.00000e+00
0.00000e+00
0.00000e+00
0.00000e+00
0.00000e+00
0.00000e+00
0.00000e+00
0.00000e+00
0.00000e+00
0.00000e+00
0.00000e+00
0.00000e+00
0.00000e+00
0.00000e+00
0.00000e+00
0.00000e+00
0.00000e+00
0.00000e+00
0.00000e+00
0.00000e+00
0.00000e+00
0.00000e+00
0.00000e+00
0.00000e+00
0.00000e+00
0.00000e+00
0.00000e+00
0.00000e+00
0.00000e+00
0.00000e+00
0.00000e+00
0.00000e+00
0.00000e+00
0.00000e+00
0.00000e+00
0.00000e+00
0.00000e+00
0.00000e+00
0.00000e+00
0.00000e+00
0.00000e+00
0.00000e+00
0.00000e+00
0.00000e+00
0.00000e+00
0.00000e+00
0.00000e+00
0.00000e+00
0.00000e+00
0.00000e+00
0.00000e+00
0.00000e+00
0.00000e+00
0.00000e+00
0.00000e+00
0.00000e+00
0.00000e+00
0.00000e+00
0.00000e+00
0.00000e+00
0.00000e+00
0.00000e+00
0.00000e+00
0.00000e+00
0.00000e+00
0.00000e+00
0.00000e+00
0.00000e+00
0.00000e+00
0.00000e+00
0.00000e+00
0.00000e+00
0.00000e+00
0.00000e+00
0.00000e+00
0.00000e+00
0.00000e+00
0.00000e+00
0.00000e+00
0.00000e+00
0.00000e+00
0.00000e+00
0.00000e+00
0.00000e+00
0.00000e+00
0.00000e+00
0.00000e+00
0.00000e+00
0.00000e+00
0.00000e+00
0.00000e+00
0.00000e+00
0.00000e+00
0.00000e+00
0.00000e+00
0.00000e+00
0.00000e+00
0.00000e+00
0.00000e+00
0.00000e+00
0.00000e+00
0.00000e+00
0.00000e+00
0.00000e+00
0.00000e+00
0.00000e+00
0.00000e+00
0.00000e+00
0.00000e+00
0.00000e+00
0.00000e+00
0.00000e+00
0.00000e+00
0.00000e+00
0.00000e+00
0.00000e+00
0.00000e+00
0.00000e+00
0.00000e+00
0.00000e+00
0.00000e+00
0.00000e+00
0.00000e+00
0.00000e+00
0.00000e+00
0.00000e+00
0.00000e+00
0.00000e+00
0.00000e+00
0.00000e+00
0.00000e+00
0.00000e+00
0.00000e+00
0.00000e+00
0.00000e+00
0.00000e+00
0.00000e+00
0.00000e+00
0.00000e+00
0.00000e+00
0.00000e+00
0.00000e+00
0.00000e+00
0.00000e+00
0.00000e+00
0.00000e+00
0.00000e+00
0.00000e+00
0.00000e+00
0.00000e+00
0.00000e+00
0.00000e+00
0.00000e+00
0.00000e+00
0.00000e+00
0.00000e+00
0.00000e+00
0.00000e+00
0.00000e+00
0.00000e+00
0.00000e+00
0.00000e+00
0.00000e+00
0.00000e+00
0.00000e+00
0.00000e+00
0.00000e+00
0.00000e+00
0.00000e+00
0.00000e+00
0.00000e+00
0.00000e+00
0.00000e+00
0.00000e+00
0.00000e+00
0.00000e+00
0.00000e+00
0.00000e+00
0.00000e+00
0.00000e+00
0.00000e+00
0.00000e+00
0.00000e+00
0.00000e+00
0.00000e+00
0.00000e+00
0.00000e+00
0.00000e+00
0.00000e+00
0.00000e+00
0.00000e+00
0.00000e+00
0.00000e+00
0.00000e+00
0.00000e+00
0.00000e+00
0.00000e+00
0.00000e+00
0.00000e+00
0.00000e+00
0.00000e+00
0.00000e+00
0.00000e+00
0.00000e+00
0.00000e+00
0.00000e+00
0.00000e+00
0.00000e+00
0.00000e+00
0.00000e+00
0.00000e+00
0.00000e+00
0.00000e+00
0.00000e+00
0.00000e+00
0.00000e+00
0.00000e+00
0.00000e+00
0.00000e+00
0.00000e+00
0.00000e+00
0.00000e+00
0.00000e+00
0.00000e+00
0.00000e+00
0.00000e+00
0.00000e+00
0.00000e+00
0.00000e+00
0.00000e+00
0.00000e+00
0.00000e+00
0.00000e+00
0.00000e+00
0.00000e+00
0.00000e+00
0.00000e+00
0.00000e+00
0.00000e+00
0.00000e+00
0.00000e+00
0.00000e+00
0.00000e+00
0.00000e+00
0.00000e+00
0.00000e+00
0.00000e+00
0.00000e+00
0.00000e+00
0.00000e+00
0.00000e+00
0.00000e+00
0.00000e+00
0.00000e+00
0.00000e+00
0.00000e+00
0.00000e+00
0.00000e+00
0.00000e+00
0.00000e+00
0.00000e+00
0.00000e+00
0.00000e+00
0.00000e+00
0.00000e+00
0.00000e+00
0.00000e+00
0.00000e+00
0.00000e+00
0.00000e+00
0.00000e+00
0.00000e+00
0.00000e+00
0.00000e+00
0.00000e+00
0.00000e+00
0.00000e+00
0.00000e+00
0.00000e+00
0.00000e+00
0.00000e+00
0.00000e+00
0.00000e+00
0.00000e+00
0.00000e+00
0.00000e+00
0.00000e+00
0.00000e+00
0.00000e+00
0.00000e+00
0.00000e+00
0.00000e+00
0.00000e+00
0.00000e+00
0.00000e+00
0.00000e+00
0.00000e+00
0.00000e+00
0.00000e+00
0.00000e+00
0.00000e+00
0.00000e+00
0.00000e+00
0.00000e+00
0.00000e+00
0.00000e+00
0.00000e+00
0.00000e+00
0.00000e+00
0.00000e+00
0.00000e+00
0.00000e+00
0.00000e+00
0.00000e+00
0.00000e+00
0.00000e+00
0.00000e+00
0.00000e+00
0.00000e+00
0.00000e+00
0.00000e+00
0.00000e+00
0.00000e+00
0.00000e+00
0.00000e+00
0.00000e+00
0.00000e+00
0.00000e+00
0.00000e+00
0.00000e+00
0.00000e+00
0.00000e+00
0.00000e+00
0.00000e+00
0.00000e+00
0.00000e+00
0.00000e+00
0.00000e+00
0.00000e+00
0.00000e+00
0.00000e+00
0.00000e+00
0.00000e+00
0.00000e+00
0.00000e+00
0.00000e+00
0.00000e+00
0.00000e+00
0.00000e+00
0.00000e+00
0.00000e+00
0.00000e+00
0.00000e+00
0.00000e+00
0.00000e+00
0.00000e+00
0.00000e+00
0.00000e+00
0.00000e+00
0.00000e+00
0.00000e+00
0.00000e+00
0.00000e+00
0.00000e+00
0.00000e+00
0.00000e+00
0.00000e+00
0.00000e+00
0.00000e+00
0.00000e+00
0.00000e+00
0.00000e+00
0.00000e+00
0.00000e+00
0.00000e+00
0.00000e+00
0.00000e+00
0.00000e+00
0.00000e+00
0.00000e+00
0.00000e+00
0.00000e+00
0.00000e+00
0.00000e+00
0.00000e+00
0.00000e+00
0.00000e+00
0.00000e+00
0.00000e+00
0.00000e+00
0.00000e+00
0.00000e+00
0.00000e+00
0.00000e+00
0.00000e+00
0.00000e+00
0.00000e+00
0.00000e+00
0.00000e+00
0.00000e+00
0.00000e+00
0.00000e+00
VECTORS Disp float
0.00000e+00 0.00000e+00 0.00000e+00
0.00000e+00 0.00000e+00 0.00000e+00
0.00000e+00 0.00000e+00 0.00000e+00
0.00000e+00 0.00000e+00 0.00000e+00
0.00000e+00 0.00000e+00 0.00000e+00
0.00000e+00 0.00000e+00 0.00000e+00
0.00000e+00 0.00000e+00 0.00000e+00
0.00000e+00 0.00000e+00 0.00000e+00
0.00000e+00 0.00000e+00 0.00000e+00
0.00000e+00 0.00000e+00 0.00000e+00
0.00000e+00 0.00000e+00 0.00000e+00
0.00000e+00 0.00000e+00 0.00000e+00
0.00000e+00 0.00000e+00 0.00000e+00
0.00000e+00 0.00000e+00 0.00000e+00
0.00000e+00 0.00000e+00 0.00000e+00
0.00000e+00 0.00000e+00 0.00000e+00
0.00000e+00 0.00000e+00 0.00000e+00
0.00000e+00 0.00000e+00 0.00000e+00
0.00000e+00 0.00000e+00 0.00000e+00
0.00000e+00 0.00000e+00 0.00000e+00
0.00000e+00 0.00000e+00 0.00000e+00
0.00000e+00 0.00000e+00 0.00000e+00
9.29628e-15 -3.56715e-15 -8.80472e-05
-5.35427e-15 1.20973e-14 -3.41827e-04
2.72496e-15 1.23680e-16 -6.99149e-04
1.25362e-14 -2.50522e-14 -1.06255e-03
-1.44545e-14 2.61044e-14 -1.40234e-03
-5.16074e-15 -8.11331e-15 -1.69190e-03
-3.22098e-15 7.81277e-15 -1.93432e-03
1.59825e-14 -3.76077e-15 -2.12217e-03
-6.96844e-15 -8.04756e-15 -2.23660e-03
-1.90579e-14 3.26773e-15 -2.27179e-03
-9.86643e-16 6.86925e-15 -2.23547e-03
1.69992e-14 -1.89487e-15 -2.12195e-03
-5.79562e-16 -1.90775e-14 -1.93514e-03
2.54596e-15 1.64209e-14 -1.68888e-03
3.40957e-15 4.62681e-16 -1.38890e-03
3.25684e-16 4.99422e-15 -1.05268e-03
-2.57610e-14 -3.37968e-15 -6.95387e-04
2.85929e-14 -1.57114e-14 -3.44726e-04
1.48136e-15 1.34289e-14 -9.18273e-05
0.00000e+00 0.00000e+00 0.00000e+00
0.00000e+00 0.00000e+00 0.00000e+00
-1.12898e-14 1.24017e-14 -3.41488e-04
8.21771e-15 2.81706e-15 -1.25324e-03
-7.91391e-15 -6.92122e-15 -2.46246e-03
9.34824e-15 -8.42139e-15 -3.74101e-03
-5.30286e-15 6.03348e-15 -4.93460e-03
1.29865e-14 3.18624e-15 -5.99204e-03
2.18350e-14 -1.34171e-14 -6.86920e-03
1.21210e-14 -7.63647e-15 -7.52238e-03
2.50177e-14 3.45921e-15 -7.92443e-03
1.84046e-14 -1.04981e-14 -8.05826e-03
1.01585e-14 -3.72715e-16 -7.92261e-03
-1.77072e-15 -9.88431e-15 -7.51495e-03
-2.15936e-14 6.87996e-15 -6.86440e-03
-1.53338e-14 -1.16099e-15 -5.99234e-03
3.30713e-16 -1.38339e-14 -4.92991e-03
-3.81492e-14 2.63128e-14 -3.71808e-03
-1.75964e-15 -7.20639e-15 -2.45658e-03
-3.25858e-14 2.89734e-15 -1.24924e-03
-1.60982e-14 1.18490e-14 -3.39037e-04
0.00000e+00 0.00000e+00 0.00000e+00
0.00000e+00 0.00000e+00 0.00000e+00
-2.86857e-15 -1.69337e-14 -7.02341e-04
3.34410e-15 2.09400e-14 -2.46913e-03
1.24584e-14 -1.37009e-14 -4.76185e-03
-1.64050e-14 -1.11623e-14 -7.24823e-03
2.16036e-14 3.43155e-15 -9.61970e-03
1.07371e-14 1.54993e-14 -1.17028e-02
8.24770e-15 -1.76200e-14 -1.34194e-02
7.52974e-16 -6.86385e-15 -1.46998e-02
9.52659e-15 2.22554e-14 -1.54780e-02
1.10661e-14 -7.40634e-15 -1.57382e-02
1.02829e-14 5.93904e-15 -1.54744e-02
-3.05474e-15 5.48530e-15 -1.46933e-02
-3.57311e-15 1.92180e-14 -1.34230e-02
8.78489e-15 -2.61338e-14 -1.17181e-02
-4.68949e-15 2.61828e-14 -9.62046e-03
2.15068e-14 -3.46564e-15 -7.25272e-03
-2.07600e-14 -1.45219e-14 -4.75755e-03
2.05263e-16 1.58656e-14 -2.45162e-03
1.64039e-14 -2.60413e-14 -6.92581e-04
0.00000e+00 0.00000e+00 0.00000e+00
0.00000e+00 0.00000e+00 0.00000e+00
6.27683e-15 -9.89419e-15 -1.06178e-03
5.31347e-15 7.40830e-15 -3.73762e-03
2.31741e-15 9.44762e-15 -7.25201e-03
1.41296e-14 -1.54427e-14 -1.10612e-02
-2.44406e-14 2.95974e-16 -1.47158e-02
-5.28442e-15 1.46249e-14 -1.79470e-02
-5.75595e-15 -5.89676e-15 -2.05872e-02
-8.61455e-15 -4.36259e-15 -2.25523e-02
-1.77491e-14 2.58925e-14 -2.37645e-02
-1.08941e-14 2.66228e-15 -2.41753e-02
-1.26315e-14 2.20826e-15 -2.37757e-02
-8.25087e-15 2.46835e-14 -2.25640e-02
1.45583e-14 -8.65310e-15 -2.06055e-02
-6.26119e-15 1.21081e-14 -1.79509e-02
4.92345e-14 2.16924e-15 -1.47193e-02
-5.53494e-15 -1.61967e-14 -1.10698e-02
1.96948e-14 2.41346e-14 -7.26136e-03
2.84004e-14 -2.73306e-14 -3.73038e-03
-2.72951e-14 -1.40145e-15 -1.05488e-03
0.00000e+00 0.00000e+00 0.00000e+00
0.00000e+00 0.00000e+00 0.00000e+00
-6.43330e-15 1.49939e-14 -1.40017e-03
4.71771e-15 -3.84413e-15 -4.94384e-03
2.21943e-14 -7.05831e-15 -9.62598e-03
-1.09703e-14 8.35881e-15 -1.47129e-02
1.25949e-14 -8.48062e-16 -1.96364e-02
-1.87819e-14 1.05123e-14 -2.40011e-02
-2.44835e-15 4.42350e-15 -2.75712e-02
-3.11382e-14 6.83386e-15 -3.02323e-02
-2.34053e-14 2.28724e-15 -3.18735e-02
-1.43453e-14 -1.26008e-15 -3.24253e-02
-2.19231e-14 -2.89734e-16 -3.18854e-02
9.08012e-15 -2.06046e-14 -3.02596e-02
-2.30805e-14 -1.03480e-14 -2.75875e-02
3.87100e-14 -3.15346e-16 -2.39874e-02
-1.38888e-14 -1.13444e-14 -1.96375e-02
2.48712e-14 3.36711e-14 -1.47437e-02
3.65023e-15 -1.67716e-14 -9.65661e-03
-3.82354e-15 6.95102e-15 -4.95393e-03
1.74257e-14 1.47494e-14 -1.39745e-03
0.00000e+00 0.00000e+00 0.00000e+00
0.00000e+00 0.00000e+00 0.00000e+00
1.39824e-14 9.00216e-15 -1.70102e-03
1.06497e-15 9.41753e-15 -6.01202e-03
-1.76440e-14 -2.97327e-14 -1.17245e-02
1.83912e-14 -7.49025e-15 -1.79538e-02
-1.35818e-14 1.89048e-14 -2.39988e-02
1.24168e-14 7.68974e-15 -2.93853e-02
-4.78318e-15 3.60617e-15 -3.38186e-02
2.05757e-15 -1.10006e-14 -3.71162e-02
1.83931e-14 -2.50665e-14 -3.91537e-02
4.18164e-15 -6.16470e-15 -3.98433e-02
-6.18994e-15 1.55239e-14 -3.91595e-02
1.45194e-14 -1.51413e-14 -3.71358e-02
4.91021e-15 1.76588e-15 -3.38168e-02
-4.09218e-14 -1.87974e-14 -2.93656e-02
2.10104e-14 1.51772e-14 -2.40090e-02
-3.18137e-14 1.35781e-14 -1.79881e-02
2.34954e-15 1.34831e-14 -1.17492e-02
1.36909e-14 -1.59947e-14 -6.01297e-03
1.41264e-14 -9.88264e-15 -1.69967e-03
0.00000e+00 0.00000e+00 0.00000e+00
0.00000e+00 0.00000e+00 0.00000e+00
-5.16754e-15 2.14297e-15 -1.93840e-03
-1.21585e-14 6.09048e-15 -6.88257e-03
-1.48860e-14 -1.42219e-14 -1.34383e-02
-2.11678e-14 -8.45008e-15 -2.06156e-02
-6.29714e-15 -1.67619e-15 -2.75962e-02
-1.30897e-15 1.97598e-14 -3.38230e-02
1.82652e-14 -1.03530e-14 -3.89519e-02
1.73685e-14 -1.37560e-14 -4.27906e-02
-1.21780e-15 1.12113e-14 -4.51748e-02
1.36130e-14 1.32415e-15 -4.59783e-02
3.54190e-14 8.59052e-15 -4.51821e-02
-1.37384e-14 1.40659e-14 -4.28017e-02
-3.04426e-14 -1.75640e-14 -3.89474e-02
-1.79922e-15 -1.95084e-14 -3.38031e-02
-5.78854e-15 6.91488e-15 -2.75854e-02
-1.61518e-14 9.74098e-15 -2.06233e-02
-3.27459e-14 -1.14759e-14 -1.34415e-02
-2.13486e-14 5.60582e-15 -6.87888e-03
-2.30698e-15 -3.77409e-15 -1.93958e-03
0.00000e+00 0.00000e+00 0.00000e+00
0.00000e+00 0.00000e+00 0.00000e+00
-1.46683e-16 -1.79647e-14 -2.12131e-03
2.09408e-15 1.34359e-14 -7.51721e-03
-7.21077e-15 1.55166e-14 -1.47028e-02
-8.57459e-15 -1.21387e-14 -2.25791e-02
-1.03813e-14 -5.68004e-15 -3.02616e-02
1.27090e-14 7.89790e-15 -3.71263e-02
1.77184e-15 1.61162e-14 -4.27868e-02
-5.66430e-15 -2.89858e-14 -4.70106e-02
2.89576e-14 3.61268e-14 -4.96517e-02
-5.73033e-15 -1.32168e-14 -5.05548e-02
-9.34377e-15 -1.37395e-14 -4.96500e-02
1.54225e-14 5.87008e-14 -4.70180e-02
1.81629e-14 -3.86169e-14 -4.27750e-02
2.60768e-14 -1.07691e-14 -3.70960e-02
-3.30024e-14 2.28314e-14 -3.02310e-02
-4.48553e-15 2.33306e-14 -2.25653e-02
1.28672e-14 -1.46553e-14 -1.46991e-02
4.17326e-15 -3.69249e-14 -7.51754e-03
-7.67354e-15 1.05107e-14 -2.12287e-03
0.00000e+00 0.00000e+00 0.00000e+00
0.00000e+00 0.00000e+00 0.00000e+00
-6.25672e-15 -1.30197e-14 -2.22975e-03
-1.68086e-14 2.30135e-14 -7.90851e-03
-5.77392e-15 9.17781e-15 -1.54763e-02
2.58451e-15 -9.99784e-15 -2.37771e-02
1.11511e-14 -9.77488e-15 -3.18827e-02
1.50741e-14 4.67412e-15 -3.91541e-02
8.22963e-15 -1.75312e-15 -4.51615e-02
-3.49889e-15 -1.96304e-15 -4.96356e-02
-4.57329e-14 -2.45208e-15 -5.24157e-02
1.11074e-14 2.60500e-15 -5.33510e-02
-2.63615e-14 -7.20443e-15 -5.24043e-02
2.52850e-14 1.62897e-14 -4.96389e-02
-3.33544e-15 -1.61668e-14 -4.51585e-02
-9.33269e-15 1.81608e-17 -3.91289e-02
6.25132e-15 1.93590e-14 -3.18561e-02
2.81029e-14 8.16453e-15 -2.37583e-02
2.60287e-14 -1.35394e-14 -1.54623e-02
1.03290e-14 -2.12134e-14 -7.91014e-03
6.10547e-15 6.66967e-15 -2.23040e-03
0.00000e+00 0.00000e+00 0.00000e+00
0.00000e+00 0.00000e+00 0.00000e+00
1.18322e-14 -1.11861e-15 -2.26208e-03
6.96136e-15 1.44974e-14 -8.04141e-03
6.31129e-15 4.65494e-15 -1.57382e-02
3.83472e-15 -7.15135e-15 -2.41858e-02
3.42103e-15 -8.91481e-15 -3.24306e-02
1.11219e-14 -1.42291e-14 -3.98301e-02
3.83044e-15 1.27126e-16 -4.59500e-02
-2.57199e-14 2.51472e-14 -5.05414e-02
4.34880e-14 -1.89094e-14 -5.33638e-02
-1.21477e-14 1.11428e-14 -5.42955e-02
3.11789e-14 -7.53105e-15 -5.33466e-02
-3.85657e-14 7.19177e-15 -5.05505e-02
-9.84911e-15 -3.97116e-16 -4.59645e-02
3.23970e-15 -3.41432e-15 -3.98163e-02
1.23590e-14 4.33996e-15 -3.23997e-02
1.92718e-14 5.44721e-15 -2.41475e-02
9.61116e-15 -4.17251e-15 -1.57129e-02
-1.07712e-14 -1.24669e-14 -8.03798e-03
-7.71517e-15 2.04239e-15 -2.27162e-03
0.00000e+00 0.00000e+00 0.00000e+00
0.00000e+00 0.00000e+00 0.00000e+00
-8.27545e-15 3.25496e-14 -2.22921e-03
-4.72255e-15 -8.78014e-15 -7.91153e-03
8.48155e-16 -2.63512e-14 -1.54779e-02
-5.48558e-15 -1.20370e-14 -2.37891e-02
-6.92094e-15 1.35398e-14 -3.18863e-02
-1.65413e-14 1.33406e-14 -3.91321e-02
-4.30376e-14 -6.02202e-15 -4.51484e-02
2.79347e-14 -1.11606e-14 -4.96426e-02
-3.96761e-14 1.23058e-14 -5.24367e-02
-8.37259e-17 -9.35458e-15 -5.33682e-02
-2.06356e-14 6.88648e-15 -5.24302e-02
9.01613e-15 1.74718e-14 -4.96465e-02
7.00364e-15 3.49330e-15 -4.51549e-02
1.59401e-14 -2.59962e-14 -3.91321e-02
3.50066e-15 -1.08514e-14 -3.18598e-02
-7.60984e-16 2.52631e-15 -2.37573e-02
-1.10012e-14 1.13508e-14 -1.54594e-02
-3.06786e-14 3.70182e-15 -7.90883e-03
-2.13881e-14 3.21427e-15 -2.23664e-03
0.00000e+00 0.00000e+00 0.00000e+00
0.00000e+00 0.00000e+00 0.00000e+00
-2.66274e-15 4.28893e-15 -2.12303e-03
4.58003e-14 -7.74227e-15 -7.52760e-03
5.25921e-14 -8.07680e-15 -1.47185e-02
-5.29299e-15 1.28156e-14 -2.25863e-02
-2.84019e-14 1.87874e-14 -3.02454e-02
3.22619e-15 -1.43574e-14 -3.71100e-02
4.36140e-14 -1.32591e-14 -4.27736e-02
-2.23657e-14 1.02394e-14 -4.70117e-02
2.66976e-14 -6.21090e-15 -4.96350e-02
1.08803e-14 -2.37338e-15 -5.05522e-02
1.02890e-14 1.62441e-15 -4.96491e-02
-5.12628e-15 1.28318e-15 -4.70102e-02
3.14192e-14 -2.43096e-14 -4.27768e-02
-2.19632e-14 -1.45606e-14 -3.71112e-02
-2.61181e-14 1.93249e-15 -3.02471e-02
-2.32247e-14 1.27513e-14 -2.25672e-02
-2.30232e-15 2.38747e-14 -1.46912e-02
1.09795e-14 -7.35000e-16 -7.52175e-03
2.35010e-14 -3.92180e-16 -2.12964e-03
0.00000e+00 0.00000e+00 0.00000e+00
0.00000e+00 0.00000e+00 0.00000e+00
3.71495e-15 -1.66763e-14 -1.94289e-03
-1.10152e-14 -5.09974e-15 -6.88954e-03
2.83746e-15 1.15596e-15 -1.34439e-02
2.05406e-14 1.97664e-15 -2.06152e-02
3.71807e-14 -7.74562e-15 -2.75860e-02
1.19444e-14 1.09725e-14 -3.38133e-02
-2.44320e-14 -1.32918e-15 -3.89527e-02
3.18543e-14 9.12407e-15 -4.27638e-02
-2.69823e-15 -2.09647e-14 -4.51421e-02
2.80812e-15 1.18526e-14 -4.59464e-02
-2.67290e-15 9.22009e-17 -4.51416e-02
1.74860e-14 -7.43521e-15 -4.27539e-02
-7.47154e-15 1.77752e-15 -3.89349e-02
-9.05674e-15 1.22387e-14 -3.38200e-02
2.17720e-14 3.00463e-15 -2.75935e-02
1.82400e-15 1.62708e-14 -2.05997e-02
-3.21213e-16 8.99471e-16 -1.34121e-02
-1.38288e-14 -3.21558e-15 -6.86936e-03
5.86892e-15 -1.96373e-14 -1.94345e-03
0.00000e+00 0.00000e+00 0.00000e+00
0.00000e+00 0.00000e+00 0.00000e+00
-1.09607e-15 -4.79203e-15 -1.70176e-03
1.54776e-15 1.01502e-14 -5.99731e-03
-1.57629e-14 5.92237e-15 -1.17118e-02
-1.42875e-14 6.48201e-16 -1.79464e-02
-2.03512e-14 4.97960e-15 -2.39985e-02
-1.29157e-14 7.24727e-15 -2.93875e-02
-3.38843e-15 -1.01793e-14 -3.38093e-02
-7.16345e-15 1.88167e-14 -3.71124e-02
-1.87730e-14 -9.04221e-15 -3.91340e-02
-1.91974e-14 2.10915e-14 -3.98218e-02
5.95115e-16 -4.81736e-15 -3.91211e-02
-5.78715e-15 5.22789e-15 -3.70776e-02
-2.02786e-15 9.70159e-15 -3.37868e-02
-3.14908e-15 -2.64440e-15 -2.93682e-02
-2.32769e-14 1.32748e-14 -2.40068e-02
2.48321e-14 -3.57991e-15 -1.79458e-02
2.21490e-14 2.63331e-15 -1.16867e-02
1.67442e-14 -4.06895e-16 -5.98166e-03
6.33672e-16 -8.96621e-15 -1.69315e-03
0.00000e+00 0.00000e+00 0.00000e+00
0.00000e+00 0.00000e+00 0.00000e+00
-9.51095e-15 -3.13651e-15 -1.39126e-03
-4.48541e-14 2.28006e-15 -4.93384e-03
-5.77802e-15 7.92043e-15 -9.61077e-03
-1.04912e-14 -3.60887e-15 -1.47040e-02
9.93908e-16 1.09259e-14 -1.96266e-02
-7.25249e-15 -2.32833e-14 -2.39885e-02
6.36531e-15 -1.14699e-14 -2.75906e-02
4.60073e-17 3.41057e-14 -3.02528e-02
3.89600e-15 4.62970e-15 -3.18859e-02
-1.05677e-14 7.28322e-15 -3.24259e-02
3.54415e-15 -1.29878e-14 -3.18722e-02
-2.00965e-14 4.24283e-15 -3.02223e-02
5.41518e-15 2.38218e-14 -2.75611e-02
-1.20323e-14 1.13467e-14 -2.39775e-02
1.48710e-14 -1.64989e-14 -1.96315e-02
-2.00291e-14 -1.50763e-15 -1.47072e-02
9.24338e-16 -7.23191e-15 -9.60106e-03
-9.58247e-15 -1.06680e-14 -4.92741e-03
-7.70772e-15 1.83313e-14 -1.39592e-03
0.00000e+00 0.00000e+00 0.00000e+00
0.00000e+00 0.00000e+00 0.00000e+00
2.87527e-15 -2.93152e-15 -1.05816e-03
1.02921e-14 5.13094e-15 -3.72963e-03
-8.73329e-15 -7.17407e-15 -7.24937e-03
1.67266e-14 1.11293e-15 -1.10428e-02
-7.50264e-15 8.15140e-15 -1.46927e-02
2.42227e-14 -2.04828e-14 -1.79465e-02
-1.22280e-14 7.51857e-15 -2.06089e-02
2.49677e-14 -2.32084e-14 -2.25821e-02
1.87283e-14 4.91729e-15 -2.37696e-02
8.75397e-15 -8.46488e-15 -2.41752e-02
9.17530e-15 -2.02762e-14 -2.37707e-02
-3.28235e-15 1.62054e-14 -2.25636e-02
1.28274e-14 -2.76169e-14 -2.05990e-02
1.69890e-14 -2.19429e-14 -1.79532e-02
-1.39397e-14 8.78945e-15 -1.47100e-02
3.03372e-14 -1.33885e-14 -1.10471e-02
-1.81538e-14 1.31559e-15 -7.24683e-03
-1.88407e-16 1.54851e-15 -3.73535e-03
-6.94664e-15 1.01337e-14 -1.06586e-03
0.00000e+00 0.00000e+00 0.00000e+00
0.00000e+00 0.00000e+00 0.00000e+00
2.29111e-14 -7.10040e-16 -7.01542e-04
-1.31157e-14 -1.35722e-14 -2.46415e-03
2.45784e-14 -8.45622e-15 -4.76320e-03
1.28234e-15 2.19706e-14 -7.23784e-03
1.79584e-14 -1.65010e-14 -9.60894e-03
-2.12221e-14 -1.61566e-14 -1.17095e-02
-1.74650e-14 5.97266e-15 -1.34364e-02
9.94271e-15 -1.21895e-14 -1.46930e-02
1.72054e-14 6.10808e-15 -1.54580e-02
7.84425e-15 -4.97466e-15 -1.57115e-02
2.78112e-15 -1.51682e-14 -1.54606e-02
1.88957e-14 1.30656e-14 -1.46949e-02
6.06654e-15 -5.08223e-15 -1.34358e-02
-1.19406e-14 -1.13996e-14 -1.17298e-02
1.38913e-14 -1.85467e-14 -9.62623e-03
-1.78155e-14 9.12175e-15 -7.24556e-03
2.45153e-14 6.60922e-15 -4.75380e-03
-9.25818e-15 7.35521e-15 -2.46780e-03
4.40786e-15 -1.12461e-14 -7.04308e-04
0.00000e+00 0.00000e+00 0.00000e+00
0.00000e+00 0.00000e+00 0.00000e+00
-2.08637e-14 1.39352e-14 -3.40684e-04
2.24272e-14 -1.00067e-14 -1.25680e-03
-4.94746e-15 1.64495e-14 -2.45774e-03
1.18902e-15 -1.45938e-14 -3.74179e-03
-1.13964e-14 3.51174e-14 -4.94845e-03
-1.34480e-14 -4.61573e-15 -6.00684e-03
-1.85356e-14 -1.13804e-14 -6.87376e-03
-1.97773e-14 7.35037e-15 -7.51175e-03
-1.17383e-14 6.05062e-15 -7.89529e-03