<?xml version="1.0"?>
<VTKFile type="UnstructuredGrid" version="0.1" byte_order="LittleEndian">
<UnstructuredGrid>
<Piece NumberOfPoints="441" NumberOfCells="400">
<Points>
<DataArray type="Float32" NumberOfComponents="3" format="ascii">
5.00000e-01 5.00000e-01 0.00000e+00
4.50000e-01 5.00000e-01 0.00000e+00
4.00000e-01 5.00000e-01 0.00000e+00
3.50000e-01 5.00000e-01 0.00000e+00
3.00000e-01 5.00000e-01 0.00000e+00
2.50000e-01 5.00000e-01 0.00000e+00
2.00000e-01 5.00000e-01 0.00000e+00
1.50000e-01 5.00000e-01 0.00000e+00
1.00000e-01 5.00000e-01 0.00000e+00
5.00000e-02 5.00000e-01 0.00000e+00
0.00000e+00 5.00000e-01 0.00000e+00
-5.00000e-02 5.00000e-01 0.00000e+00
-1.00000e-01 5.00000e-01 0.00000e+00
-1.50000e-01 5.00000e-01 0.00000e+00
-2.00000e-01 5.00000e-01 0.00000e+00
-2.50000e-01 5.00000e-01 0.00000e+00
-3.00000e-01 5.00000e-01 0.00000e+00
-3.50000e-01 5.00000e-01 0.00000e+00
-4.00000e-01 5.00000e-01 0.00000e+00
-4.50000e-01 5.00000e-01 0.00000e+00
-5.00000e-01 5.00000e-01 0.00000e+00
5.00000e-01 4.50000e-01 0.00000e+00
4.50000e-01 4.50000e-01 0.00000e+00
4.00000e-01 4.50000e-01 0.00000e+00
3.50000e-01 4.50000e-01 0.00000e+00
3.00000e-01 4.50000e-01 0.00000e+00
2.50000e-01 4.50000e-01 0.00000e+00
2.00000e-01 4.50000e-01 0.00000e+00
1.50000e-01 4.50000e-01 0.00000e+00
1.00000e-01 4.50000e-01 0.00000e+00
5.00000e-02 4.50000e-01 0.00000e+00
0.00000e+00 4.50000e-01 0.00000e+00
-5.00000e-02 4.50000e-01 0.00000e+00
-1.00000e-01 4.50000e-01 0.00000e+00
-1.50000e-01 4.50000e-01 0.00000e+00
-2.00000e-01 4.50000e-01 0.00000e+00
-2.50000e-01 4.50000e-01 0.00000e+00
-3.00000e-01 4.50000e-01 0.00000e+00
-3.50000e-01 4.50000e-01 0.00000e+00
-4.00000e-01 4.50000e-01 0.00000e+00
-4.50000e-01 4.50000e-01 0.00000e+00
-5.00000e-01 4.50000e-01 0.00000e+00
5.00000e-01 4.00000e-01 0.00000e+00
4.50000e-01 4.00000e-01 0.00000e+00
4.00000e-01 4.00000e-01 0.00000e+00
3.50000e-01 4.00000e-01 0.00000e+00
3.00000e-01 4.00000e-01 0.00000e+00
2.50000e-01 4.00000e-01 0.00000e+00
2.00000e-01 4.00000e-01 0.00000e+00
1.50000e-01 4.00000e-01 0.00000e+00
1.00000e-01 4.00000e-01 0.00000e+00
5.00000e-02 4.00000e-01 0.00000e+00
0.00000e+00 4.00000e-01 0.00000e+00
-5.00000e-02 4.00000e-01 0.00000e+00
-1.00000e-01 4.00000e-01 0.00000e+00
-1.50000e-01 4.00000e-01 0.00000e+00
-2.00000e-01 4.00000e-01 0.00000e+00
-2.50000e-01 4.00000e-01 0.00000e+00
-3.00000e-01 4.00000e-01 0.00000e+00
-3.50000e-01 4.00000e-01 0.00000e+00
-4.00000e-01 4.00000e-01 0.00000e+00
-4.50000e-01 4.00000e-01 0.00000e+00
-5.00000e-01 4.00000e-01 0.00000e+00
5.00000e-01 3.50000e-01 0.00000e+00
4.50000e-01 3.50000e-01 0.00000e+00
4.00000e-01 3.50000e-01 0.00000e+00
3.50000e-01 3.50000e-01 0.00000e+00
3.00000e-01 3.50000e-01 0.00000e+00
2.50000e-01 3.50000e-01 0.00000e+00
2.00000e-01 3.50000e-01 0.00000e+00
1.50000e-01 3.50000e-01 0.00000e+00
1.00000e-01 3.50000e-01 0.00000e+00
5.00000e-02 3.50000e-01 0.00000e+00
0.00000e+00 3.50000e-01 0.00000e+00
-5.00000e-02 3.50000e-01 0.00000e+00
-1.00000e-01 3.50000e-01 0.00000e+00
-1.50000e-01 3.50000e-01 0.00000e+00
-2.00000e-01 3.50000e-01 0.00000e+00
-2.50000e-01 3.50000e-01 0.00000e+00
-3.00000e-01 3.50000e-01 0.00000e+00
-3.50000e-01 3.50000e-01 0.00000e+00
-4.00000e-01 3.50000e-01 0.00000e+00
-4.50000e-01 3.50000e-01 0.00000e+00
-5.00000e-01 3.50000e-01 0.00000e+00
5.00000e-01 3.00000e-01 0.00000e+00
4.50000e-01 3.00000e-01 0.00000e+00
4.00000e-01 3.00000e-01 0.00000e+00
3.50000e-01 3.00000e-01 0.00000e+00
3.00000e-01 3.00000e-01 0.00000e+00
2.50000e-01 3.00000e-01 0.00000e+00
2.00000e-01 3.00000e-01 0.00000e+00
1.50000e-01 3.00000e-01 0.00000e+00
1.00000e-01 3.00000e-01 0.00000e+00
5.00000e-02 3.00000e-01 0.00000e+00
0.00000e+00 3.00000e-01 0.00000e+00
-5.00000e-02 3.00000e-01 0.00000e+00
-1.00000e-01 3.00000e-01 0.00000e+00
-1.50000e-01 3.00000e-01 0.00000e+00
-2.00000e-01 3.00000e-01 0.00000e+00
-2.50000e-01 3.00000e-01 0.00000e+00
-3.00000e-01 3.00000e-01 0.00000e+00
-3.50000e-01 3.00000e-01 0.00000e+00
-4.00000e-01 3.00000e-01 0.00000e+00
-4.50000e-01 3.00000e-01 0.00000e+00
-5.00000e-01 3.00000e-01 0.00000e+00
5.00000e-01 2.50000e-01 0.00000e+00
4.50000e-01 2.50000e-01 0.00000e+00
4.00000e-01 2.50000e-01 0.00000e+00
3.50000e-01 2.50000e-01 0.00000e+00
3.00000e-01 2.50000e-01 0.00000e+00
2.50000e-01 2.50000e-01 0.00000e+00
2.00000e-01 2.50000e-01 0.00000e+00
1.50000e-01 2.50000e-01 0.00000e+00
1.00000e-01 2.50000e-01 0.00000e+00
5.00000e-02 2.50000e-01 0.00000e+00
0.00000e+00 2.50000e-01 0.00000e+00
-5.00000e-02 2.50000e-01 0.00000e+00
-1.00000e-01 2.50000e-01 0.00000e+00
-1.50000e-01 2.50000e-01 0.00000e+00
-2.00000e-01 2.50000e-01 0.00000e+00
-2.50000e-01 2.50000e-01 0.00000e+00
-3.00000e-01 2.50000e-01 0.00000e+00
-3.50000e-01 2.50000e-01 0.00000e+00
-4.00000e-01 2.50000e-01 0.00000e+00
-4.50000e-01 2.50000e-01 0.00000e+00
-5.00000e-01 2.50000e-01 0.00000e+00
5.00000e-01 2.00000e-01 0.00000e+00
4.50000e-01 2.00000e-01 0.00000e+00
4.00000e-01 2.00000e-01 0.00000e+00
3.50000e-01 2.00000e-01 0.00000e+00
3.00000e-01 2.00000e-01 0.00000e+00
2.50000e-01 2.00000e-01 0.00000e+00
2.00000e-01 2.00000e-01 0.00000e+00
1.50000e-01 2.00000e-01 0.00000e+00
1.00000e-01 2.00000e-01 0.00000e+00
5.00000e-02 2.00000e-01 0.00000e+00
0.00000e+00 2.00000e-01 0.00000e+00
-5.00000e-02 2.00000e-01 0.00000e+00
-1.00000e-01 2.00000e-01 0.00000e+00
-1.50000e-01 2.00000e-01 0.00000e+00
-2.00000e-01 2.00000e-01 0.00000e+00
-2.50000e-01 2.00000e-01 0.00000e+00
-3.00000e-01 2.00000e-01 0.00000e+00
-3.50000e-01 2.00000e-01 0.00000e+00
-4.00000e-01 2.00000e-01 0.00000e+00
-4.50000e-01 2.00000e-01 0.00000e+00
-5.00000e-01 2.00000e-01 0.00000e+00
5.00000e-01 1.50000e-01 0.00000e+00
4.50000e-01 1.50000e-01 0.00000e+00
4.00000e-01 1.50000e-01 0.00000e+00
3.50000e-01 1.50000e-01 0.00000e+00
3.00000e-01 1.50000e-01 0.00000e+00
2.50000e-01 1.50000e-01 0.00000e+00
2.00000e-01 1.50000e-01 0.00000e+00
1.50000e-01 1.50000e-01 0.00000e+00
1.00000e-01 1.50000e-01 0.00000e+00
5.00000e-02 1.50000e-01 0.00000e+00
0.00000e+00 1.50000e-01 0.00000e+00
-5.00000e-02 1.50000e-01 0.00000e+00
-1.00000e-01 1.50000e-01 0.00000e+00
-1.50000e-01 1.50000e-01 0.00000e+00
-2.00000e-01 1.50000e-01 0.00000e+00
-2.50000e-01 1.50000e-01 0.00000e+00
-3.00000e-01 1.50000e-01 0.00000e+00
-3.50000e-01 1.50000e-01 0.00000e+00
-4.00000e-01 1.50000e-01 0.00000e+00
-4.50000e-01 1.50000e-01 0.00000e+00
-5.00000e-01 1.50000e-01 0.00000e+00
5.00000e-01 1.00000e-01 0.00000e+00
4.50000e-01 1.00000e-01 0.00000e+00
4.00000e-01 1.00000e-01 0.00000e+00
3.50000e-01 1.00000e-01 0.00000e+00
3.00000e-01 1.00000e-01 0.00000e+00
2.50000e-01 1.00000e-01 0.00000e+00
2.00000e-01 1.00000e-01 0.00000e+00
1.50000e-01 1.00000e-01 0.00000e+00
1.00000e-01 1.00000e-01 0.00000e+00
5.00000e-02 1.00000e-01 0.00000e+00
0.00000e+00 1.00000e-01 0.00000e+00
-5.00000e-02 1.00000e-01 0.00000e+00
-1.00000e-01 1.00000e-01 0.00000e+00
-1.50000e-01 1.00000e-01 0.00000e+00
-2.00000e-01 1.00000e-01 0.00000e+00
-2.50000e-01 1.00000e-01 0.00000e+00
-3.00000e-01 1.00000e-01 0.00000e+00
-3.50000e-01 1.00000e-01 0.00000e+00
-4.00000e-01 1.00000e-01 0.00000e+00
-4.50000e-01 1.00000e-01 0.00000e+00
-5.00000e-01 1.00000e-01 0.00000e+00
5.00000e-01 5.00000e-02 0.00000e+00
4.50000e-01 5.00000e-02 0.00000e+00
4.00000e-01 5.00000e-02 0.00000e+00
3.50000e-01 5.00000e-02 0.00000e+00
3.00000e-01 5.00000e-02 0.00000e+00
2.50000e-01 5.00000e-02 0.00000e+00
2.00000e-01 5.00000e-02 0.00000e+00
1.50000e-01 5.00000e-02 0.00000e+00
1.00000e-01 5.00000e-02 0.00000e+00
5.00000e-02 5.00000e-02 0.00000e+00
0.00000e+00 5.00000e-02 0.00000e+00
-5.00000e-02 5.00000e-02 0.00000e+00
-1.00000e-01 5.00000e-02 0.00000e+00
-1.50000e-01 5.00000e-02 0.00000e+00
-2.00000e-01 5.00000e-02 0.00000e+00
-2.50000e-01 5.00000e-02 0.00000e+00
-3.00000e-01 5.00000e-02 0.00000e+00
-3.50000e-01 5.00000e-02 0.00000e+00
-4.00000e-01 5.00000e-02 0.00000e+00
-4.50000e-01 5.00000e-02 0.00000e+00
-5.00000e-01 5.00000e-02 0.00000e+00
5.00000e-01 0.00000e+00 0.00000e+00
4.50000e-01 0.00000e+00 0.00000e+00
4.00000e-01 0.00000e+00 0.00000e+00
3.50000e-01 0.00000e+00 0.00000e+00
3.00000e-01 0.00000e+00 0.00000e+00
2.50000e-01 0.00000e+00 0.00000e+00
2.00000e-01 0.00000e+00 0.00000e+00
1.50000e-01 0.00000e+00 0.00000e+00
1.00000e-01 0.00000e+00 0.00000e+00
5.00000e-02 0.00000e+00 0.00000e+00
0.00000e+00 0.00000e+00 0.00000e+00
-5.00000e-02 0.00000e+00 0.00000e+00
-1.00000e-01 0.00000e+00 0.00000e+00
-1.50000e-01 0.00000e+00 0.00000e+00
-2.00000e-01 0.00000e+00 0.00000e+00
-2.50000e-01 0.00000e+00 0.00000e+00
-3.00000e-01 0.00000e+00 0.00000e+00
-3.50000e-01 0.00000e+00 0.00000e+00
-4.00000e-01 0.00000e+00 0.00000e+00
-4.50000e-01 0.00000e+00 0.00000e+00
-5.00000e-01 0.00000e+00 0.00000e+00
5.00000e-01 -5.00000e-02 0.00000e+00
4.50000e-01 -5.00000e-02 0.00000e+00
4.00000e-01 -5.00000e-02 0.00000e+00
3.50000e-01 -5.00000e-02 0.00000e+00
3.00000e-01 -5.00000e-02 0.00000e+00
2.50000e-01 -5.00000e-02 0.00000e+00
2.00000e-01 -5.00000e-02 0.00000e+00
1.50000e-01 -5.00000e-02 0.00000e+00
1.00000e-01 -5.00000e-02 0.00000e+00
5.00000e-02 -5.00000e-02 0.00000e+00
0.00000e+00 -5.00000e-02 0.00000e+00
-5.00000e-02 -5.00000e-02 0.00000e+00
-1.00000e-01 -5.00000e-02 0.00000e+00
-1.50000e-01 -5.00000e-02 0.00000e+00
-2.00000e-01 -5.00000e-02 0.00000e+00
-2.50000e-01 -5.00000e-02 0.00000e+00
-3.00000e-01 -5.00000e-02 0.00000e+00
-3.50000e-01 -5.00000e-02 0.00000e+00
-4.00000e-01 -5.00000e-02 0.00000e+00
-4.50000e-01 -5.00000e-02 0.00000e+00
-5.00000e-01 -5.00000e-02 0.00000e+00
5.00000e-01 -1.00000e-01 0.00000e+00
4.50000e-01 -1.00000e-01 0.00000e+00
4.00000e-01 -1.00000e-01 0.00000e+00
3.50000e-01 -1.00000e-01 0.00000e+00
3.00000e-01 -1.00000e-01 0.00000e+00
2.50000e-01 -1.00000e-01 0.00000e+00
2.00000e-01 -1.00000e-01 0.00000e+00
1.50000e-01 -1.00000e-01 0.00000e+00
1.00000e-01 -1.00000e-01 0.00000e+00
5.00000e-02 -1.00000e-01 0.00000e+00
0.00000e+00 -1.00000e-01 0.00000e+00
-5.00000e-02 -1.00000e-01 0.00000e+00
-1.00000e-01 -1.00000e-01 0.00000e+00
-1.50000e-01 -1.00000e-01 0.00000e+00
[...]
<PointData>
<DataArray Name="Mises" type="Float32" format="ascii">
0.00000e+00
0.00000e+00
0.00000e+00
0.00000e+00
0.00000e+00
0.00000e+00
0.00000e+00
0.00000e+00
0.00000e+00
0.00000e+00
0.00000e+00
0.00000e+00
0.00000e+00
0.00000e+00
0.00000e+00
0.00000e+00
0.00000e+00
0.00000e+00
0.00000e+00
0.00000e+00
0.00000e+00
0.00000e+00
0.00000e+00
0.00000e+00
0.00000e+00
0.00000e+00
0.00000e+00
0.00000e+00
0.00000e+00
0.00000e+00
0.00000e+00
0.00000e+00
0.00000e+00
0.00000e+00
0.00000e+00
0.00000e+00
0.00000e+00
0.00000e+00
0.00000e+00
0.00000e+00
0.00000e+00
0.00000e+00
0.00000e+00
0.00000e+00
0.00000e+00
0.00000e+00
0.00000e+00
0.00000e+00
0.00000e+00
0.00000e+00
0.00000e+00
0.00000e+00
0.00000e+00
0.00000e+00
0.00000e+00
0.00000e+00
0.00000e+00
0.00000e+00
0.00000e+00
0.00000e+00
0.00000e+00
0.00000e+00
0.00000e+00
0.00000e+00
0.00000e+00
0.00000e+00
0.00000e+00
0.00000e+00
0.00000e+00
0.00000e+00
0.00000e+00
0.00000e+00
0.00000e+00
0.00000e+00
0.00000e+00
0.00000e+00
0.00000e+00
0.00000e+00
0.00000e+00
0.00000e+00
0.00000e+00
0.00000e+00
0.00000e+00
0.00000e+00
0.00000e+00
0.00000e+00
0.00000e+00
0.00000e+00
0.00000e+00
0.00000e+00
0.00000e+00
0.00000e+00
0.00000e+00
0.00000e+00
0.00000e+00
0.00000e+00
0.00000e+00
0.00000e+00
0.00000e+00
0.00000e+00
0.00000e+00
0.00000e+00
0.00000e+00
0.00000e+00
0.00000e+00
0.00000e+00
0.00000e+00
0.00000e+00
0.00000e+00
0.00000e+00
0.00000e+00
0.00000e+00
0.00000e+00
0.00000e+00
0.00000e+00
0.00000e+00
0.00000e+00
0.00000e+00
0.00000e+00
0.00000e+00
0.00000e+00
0.00000e+00
0.00000e+00
0.00000e+00
0.00000e+00
0.00000e+00
0.00000e+00
0.00000e+00
0.00000e+00
0.00000e+00
0.00000e+00
0.00000e+00
0.00000e+00
0.00000e+00
0.00000e+00
0.00000e+00
0.00000e+00
0.00000e+00
0.00000e+00
0.00000e+00
0.00000e+00
0.00000e+00
0.00000e+00
0.00000e+00
0.00000e+00
0.00000e+00
0.00000e+00
0.00000e+00
0.00000e+00
0.00000e+00
0.00000e+00
0.00000e+00
0.00000e+00
0.00000e+00
0.00000e+00
0.00000e+00
0.00000e+00
0.00000e+00
0.00000e+00
0.00000e+00
0.00000e+00
0.00000e+00
0.00000e+00
0.00000e+00
0.00000e+00
0.00000e+00
0.00000e+00
0.00000e+00
0.00000e+00
0.00000e+00
0.00000e+00
0.00000e+00
0.00000e+00
0.00000e+00
0.00000e+00
0.00000e+00
0.00000e+00
0.00000e+00
0.00000e+00
0.00000e+00
0.00000e+00
0.00000e+00
0.00000e+00
0.00000e+00
0.00000e+00
0.00000e+00
0.00000e+00
0.00000e+00
0.00000e+00
0.00000e+00
0.00000e+00
0.00000e+00
0.00000e+00
0.00000e+00
0.00000e+00
0.00000e+00
0.00000e+00
0.00000e+00
0.00000e+00
0.00000e+00
0.00000e+00
0.00000e+00
0.00000e+00
0.00000e+00
0.00000e+00
0.00000e+00
0.00000e+00
0.00000e+00
0.00000e+00
0.00000e+00
0.00000e+00
0.00000e+00
0.00000e+00
0.00000e+00
0.00000e+00
0.00000e+00
0.00000e+00
0.00000e+00
0.00000e+00
0.00000e+00
0.00000e+00
0.00000e+00
0.00000e+00
0.00000e+00
0.00000e+00
0.00000e+00
0.00000e+00
0.00000e+00
0.00000e+00
0.00000e+00
0.00000e+00
0.00000e+00
0.00000e+00
0.00000e+00
0.00000e+00
0.00000e+00
0.00000e+00
0.00000e+00
0.00000e+00
0.00000e+00
0.00000e+00
0.00000e+00
0.00000e+00
0.00000e+00
0.00000e+00
0.00000e+00
0.00000e+00
0.00000e+00
0.00000e+00
0.00000e+00
0.00000e+00
0.00000e+00
0.00000e+00
0.00000e+00
0.00000e+00
0.00000e+00
0.00000e+00
0.00000e+00
0.00000e+00
0.00000e+00
0.00000e+00
0.00000e+00
0.00000e+00
0.00000e+00
0.00000e+00
0.00000e+00
0.00000e+00
0.00000e+00
0.00000e+00
0.00000e+00
0.00000e+00
0.00000e+00
0.00000e+00
0.00000e+00
0.00000e+00
0.00000e+00
0.00000e+00
0.00000e+00
0.00000e+00
0.00000e+00
0.00000e+00
0.00000e+00
0.00000e+00
0.00000e+00
0.00000e+00
0.00000e+00
0.00000e+00
0.00000e+00
0.00000e+00
0.00000e+00
0.00000e+00
0.00000e+00
0.00000e+00
0.00000e+00
0.00000e+00
0.00000e+00
0.00000e+00
0.00000e+00
0.00000e+00
0.00000e+00
0.00000e+00
0.00000e+00
0.00000e+00
0.00000e+00
0.00000e+00
0.00000e+00
0.00000e+00
0.00000e+00
0.00000e+00
0.00000e+00
0.00000e+00
0.00000e+00
0.00000e+00
0.00000e+00
0.00000e+00
0.00000e+00
0.00000e+00
0.00000e+00
0.00000e+00
0.00000e+00
0.00000e+00
0.00000e+00
0.00000e+00
0.00000e+00
0.00000e+00
0.00000e+00
0.00000e+00
0.00000e+00
0.00000e+00
0.00000e+00
0.00000e+00
0.00000e+00
0.00000e+00
0.00000e+00
0.00000e+00
0.00000e+00
0.00000e+00
0.00000e+00
0.00000e+00
0.00000e+00
0.00000e+00
0.00000e+00
0.00000e+00
0.00000e+00
0.00000e+00
0.00000e+00
0.00000e+00
0.00000e+00
0.00000e+00
0.00000e+00
0.00000e+00
0.00000e+00
0.00000e+00
0.00000e+00
0.00000e+00
0.00000e+00
0.00000e+00
0.00000e+00
0.00000e+00
0.00000e+00
0.00000e+00
0.00000e+00
0.00000e+00
0.00000e+00
0.00000e+00
0.00000e+00
0.00000e+00
0.00000e+00
0.00000e+00
0.00000e+00
0.00000e+00
0.00000e+00
0.00000e+00
0.00000e+00
0.00000e+00
0.00000e+00
0.00000e+00
0.00000e+00
0.00000e+00
0.00000e+00
0.00000e+00
0.00000e+00
0.00000e+00
0.00000e+00
0.00000e+00
0.00000e+00
0.00000e+00
0.00000e+00
0.00000e+00
0.00000e+00
0.00000e+00
0.00000e+00
0.00000e+00
0.00000e+00
0.00000e+00
0.00000e+00
0.00000e+00
0.00000e+00
0.00000e+00
0.00000e+00
0.00000e+00
0.00000e+00
0.00000e+00
0.00000e+00
0.00000e+00
0.00000e+00
0.00000e+00
0.00000e+00
0.00000e+00
0.00000e+00
0.00000e+00
0.00000e+00
0.00000e+00
0.00000e+00
0.00000e+00
0.00000e+00
0.00000e+00
0.00000e+00
0.00000e+00
0.00000e+00
0.00000e+00
0.00000e+00
0.00000e+00
0.00000e+00
0.00000e+00
0.00000e+00
0.00000e+00
0.00000e+00
0.00000e+00
0.00000e+00
0.00000e+00
0.00000e+00
0.00000e+00
0.00000e+00
0.00000e+00
0.00000e+00
0.00000e+00
0.00000e+00
0.00000e+00
0.00000e+00
0.00000e+00
</DataArray>
<DataArray Name="Disp" type="Float32" NumberOfComponents="3" format="ascii">
0.00000e+00 0.00000e+00 0.00000e+00
0.00000e+00 0.00000e+00 0.00000e+00
0.00000e+00 0.00000e+00 0.00000e+00
0.00000e+00 0.00000e+00 0.00000e+00
0.00000e+00 0.00000e+00 0.00000e+00
0.00000e+00 0.00000e+00 0.00000e+00
0.00000e+00 0.00000e+00 0.00000e+00
0.00000e+00 0.00000e+00 0.00000e+00
0.00000e+00 0.00000e+00 0.00000e+00
0.00000e+00 0.00000e+00 0.00000e+00
0.00000e+00 0.00000e+00 0.00000e+00
0.00000e+00 0.00000e+00 0.00000e+00
0.00000e+00 0.00000e+00 0.00000e+00
0.00000e+00 0.00000e+00 0.00000e+00
0.00000e+00 0.00000e+00 0.00000e+00
0.00000e+00 0.00000e+00 0.00000e+00
0.00000e+00 0.00000e+00 0.00000e+00
0.00000e+00 0.00000e+00 0.00000e+00
0.00000e+00 0.00000e+00 0.00000e+00
0.00000e+00 0.00000e+00 0.00000e+00
0.00000e+00 0.00000e+00 0.00000e+00
0.00000e+00 0.00000e+00 0.00000e+00
-3.84903e-16 -8.15916e-17 -9.21058e-05
7.49470e-16 -9.09904e-17 -3.47822e-04
4.67606e-16 3.96415e-16 -6.93419e-04
3.02651e-16 1.12452e-16 -1.05735e-03
1.66219e-16 -9.17162e-16 -1.40077e-03
8.54471e-17 -7.09521e-16 -1.70004e-03
1.04743e-15 8.17985e-18 -1.94169e-03
9.44037e-16 -1.39313e-16 -2.11812e-03
7.55193e-16 -9.26889e-16 -2.22526e-03
-7.11340e-16 -2.93987e-16 -2.26116e-03
7.15269e-16 3.71298e-16 -2.22524e-03
7.20831e-16 -1.42968e-16 -2.11811e-03
5.69452e-16 3.03890e-16 -1.94167e-03
3.64550e-16 -1.68901e-16 -1.70003e-03
1.11081e-15 3.47902e-16 -1.40076e-03
9.47939e-16 -1.70737e-16 -1.05735e-03
9.50968e-16 4.86949e-16 -6.93403e-04
3.39341e-16 4.04164e-16 -3.47820e-04
7.98334e-16 1.41791e-16 -9.21021e-05
0.00000e+00 0.00000e+00 0.00000e+00
0.00000e+00 0.00000e+00 0.00000e+00
7.52030e-16 6.39530e-16 -3.47823e-04
4.51809e-16 1.05023e-15 -1.25449e-03
4.02127e-16 7.52316e-16 -2.45828e-03
1.18626e-15 -7.16040e-16 -3.74200e-03
3.96328e-16 -2.49333e-16 -4.96373e-03
3.75214e-16 6.76814e-16 -6.03660e-03
2.98535e-16 5.42989e-16 -6.90777e-03
9.64707e-16 -1.23359e-16 -7.54634e-03
8.20166e-16 -5.62543e-16 -7.93514e-03
5.14577e-16 4.91256e-16 -8.06557e-03
7.94744e-16 -1.01152e-16 -7.93513e-03
6.61677e-16 -1.12163e-16 -7.54630e-03
9.98361e-16 7.28175e-18 -6.90775e-03
1.07461e-15 -1.07246e-16 -6.03660e-03
1.42459e-15 7.58526e-16 -4.96373e-03
3.23324e-16 -8.79111e-17 -3.74196e-03
5.79455e-16 8.27174e-17 -2.45825e-03
4.75630e-16 2.21354e-16 -1.25447e-03
9.10015e-16 -9.18069e-17 -3.47832e-04
0.00000e+00 0.00000e+00 0.00000e+00
0.00000e+00 0.00000e+00 0.00000e+00
6.18638e-16 1.41468e-16 -6.93416e-04
-4.69647e-16 6.18230e-16 -2.45828e-03
2.26215e-16 7.31605e-16 -4.77614e-03
4.21600e-16 1.07712e-15 -7.26342e-03
-2.93795e-16 -8.12865e-17 -9.65077e-03
2.94630e-16 -6.07812e-16 -1.17621e-02
1.54207e-15 2.79822e-16 -1.34862e-02
1.32056e-16 -3.73165e-16 -1.47553e-02
4.32670e-16 -1.19386e-16 -1.55300e-02
5.83224e-16 -5.97315e-16 -1.57903e-02
4.96952e-16 8.79772e-17 -1.55300e-02
1.93946e-15 2.93297e-16 -1.47553e-02
-6.87946e-16 3.62933e-16 -1.34862e-02
-7.17162e-17 -6.00451e-16 -1.17621e-02
8.13998e-16 -2.80397e-16 -9.65071e-03
5.46217e-16 9.85303e-17 -7.26336e-03
5.15679e-16 -4.53542e-17 -4.77607e-03
5.33182e-16 -3.54582e-16 -2.45825e-03
1.09443e-15 4.59650e-16 -6.93394e-04
0.00000e+00 0.00000e+00 0.00000e+00
0.00000e+00 0.00000e+00 0.00000e+00
5.55343e-17 -6.12561e-16 -1.05734e-03
4.86359e-16 -1.02989e-16 -3.74202e-03
1.97935e-16 1.20793e-15 -7.26347e-03
7.05885e-16 1.17626e-15 -1.10543e-02
1.42066e-16 -1.84803e-16 -1.47136e-02
1.86905e-16 -9.72123e-16 -1.79677e-02
5.40789e-16 -1.84772e-16 -2.06372e-02
4.35361e-16 -8.60061e-17 -2.26088e-02
1.01803e-16 -4.69520e-16 -2.38152e-02
8.13264e-16 -5.12899e-16 -2.42209e-02
1.19511e-15 -4.59957e-16 -2.38151e-02
7.32282e-16 -8.01195e-16 -2.26087e-02
7.85946e-16 5.57708e-16 -2.06371e-02
1.94800e-16 -7.23420e-16 -1.79676e-02
2.50198e-16 -5.80656e-16 -1.47135e-02
9.70174e-16 -9.14800e-16 -1.10541e-02
6.24391e-16 -5.49581e-17 -7.26335e-03
1.02460e-15 -2.64938e-16 -3.74196e-03
5.36164e-16 5.29454e-16 -1.05734e-03
0.00000e+00 0.00000e+00 0.00000e+00
0.00000e+00 0.00000e+00 0.00000e+00
3.18259e-16 4.43048e-16 -1.40079e-03
6.58235e-16 -3.49237e-16 -4.96380e-03
3.59504e-16 8.66544e-16 -9.65088e-03
5.46789e-16 -2.03916e-16 -1.47137e-02
-2.28426e-16 -2.18984e-16 -1.96204e-02
7.78459e-16 1.08333e-16 -2.40013e-02
4.19132e-16 -6.69983e-17 -2.76076e-02
2.20884e-16 7.29211e-17 -3.02784e-02
-2.17093e-16 -3.45840e-16 -3.19154e-02
4.32613e-17 6.99048e-16 -3.24666e-02
3.35513e-16 -1.51015e-16 -3.19154e-02
6.53282e-16 2.40727e-16 -3.02783e-02
5.91467e-16 -5.14501e-16 -2.76075e-02
2.13186e-16 -4.01285e-16 -2.40012e-02
1.04038e-15 -5.46422e-16 -1.96202e-02
8.30528e-17 -5.26572e-16 -1.47135e-02
3.21037e-16 -5.71598e-16 -9.65073e-03
1.36397e-15 2.64253e-16 -4.96374e-03
-1.14375e-16 -1.43920e-16 -1.40078e-03
0.00000e+00 0.00000e+00 0.00000e+00
0.00000e+00 0.00000e+00 0.00000e+00
3.52126e-16 -2.27089e-17 -1.70006e-03
-3.68073e-16 -4.19165e-16 -6.03672e-03
3.02668e-16 3.17821e-16 -1.17623e-02
-4.76787e-16 -3.36529e-16 -1.79679e-02
-4.87113e-16 -4.41918e-16 -2.40015e-02
-2.38370e-16 -2.61326e-16 -2.94045e-02
8.23863e-16 -4.85673e-16 -3.38638e-02
6.09736e-17 8.70257e-16 -3.71728e-02
7.95506e-16 -9.02815e-16 -3.92039e-02
-3.67639e-17 -2.80605e-16 -3.98881e-02
-6.46871e-18 -8.11510e-17 -3.92039e-02
-2.67640e-16 -2.40991e-16 -3.71727e-02
7.56043e-16 6.58466e-16 -3.38636e-02
-1.13404e-15 -5.65594e-16 -2.94043e-02
-4.90039e-16 3.63264e-16 -2.40013e-02
2.78607e-16 -4.20025e-16 -1.79677e-02
7.60982e-16 -5.06797e-16 -1.17621e-02
5.87316e-16 5.94031e-16 -6.03667e-03
2.55698e-16 7.51986e-16 -1.70007e-03
0.00000e+00 0.00000e+00 0.00000e+00
0.00000e+00 0.00000e+00 0.00000e+00
-1.01471e-15 1.08304e-16 -1.94173e-03
-1.71122e-16 -1.74046e-16 -6.90792e-03
1.16610e-15 -9.89144e-16 -1.34865e-02
2.92415e-16 2.91901e-16 -2.06375e-02
-4.51827e-16 5.23851e-16 -2.76079e-02
1.30064e-16 -4.68818e-16 -3.38639e-02
5.72004e-17 -7.22176e-16 -3.90367e-02
3.72640e-16 -8.47017e-16 -4.28808e-02
2.00763e-16 -3.89537e-16 -4.52427e-02
1.36785e-15 -4.83658e-16 -4.60388e-02
7.21039e-16 -4.22189e-16 -4.52427e-02
-4.44231e-16 -5.66973e-16 -4.28808e-02
7.37477e-16 2.74667e-16 -3.90365e-02
1.03794e-15 4.96956e-17 -3.38637e-02
1.25705e-15 2.57448e-17 -2.76077e-02
3.89460e-17 -1.19812e-15 -2.06373e-02
-6.80821e-16 -2.00054e-16 -1.34864e-02
-1.74460e-16 5.77994e-16 -6.90793e-03
1.63199e-16 5.43924e-17 -1.94173e-03
0.00000e+00 0.00000e+00 0.00000e+00
0.00000e+00 0.00000e+00 0.00000e+00
-2.92156e-16 -5.26280e-16 -2.11817e-03
3.05021e-16 -7.37506e-16 -7.54651e-03
6.26570e-17 -7.22384e-16 -1.47556e-02
-1.49204e-16 -3.68450e-16 -2.26092e-02
4.46643e-16 4.63768e-16 -3.02787e-02
-2.79497e-16 -4.54974e-16 -3.71730e-02
2.75935e-16 -4.55642e-16 -4.28810e-02
3.91310e-16 -1.27044e-17 -4.71270e-02
5.50592e-16 -5.39610e-16 -4.97376e-02
9.63738e-16 -8.64779e-16 -5.06177e-02
8.26549e-16 -5.39889e-16 -4.97376e-02
3.93574e-16 -7.09110e-16 -4.71268e-02
-3.81275e-16 -3.10136e-16 -4.28808e-02
8.14258e-16 -4.37023e-16 -3.71728e-02
1.04342e-15 -9.88561e-17 -3.02786e-02
5.49046e-16 -1.18579e-15 -2.26091e-02
9.82322e-17 -8.85680e-16 -1.47556e-02
7.56111e-16 -2.27558e-16 -7.54653e-03
-5.48936e-16 9.06455e-16 -2.11818e-03
0.00000e+00 0.00000e+00 0.00000e+00
0.00000e+00 0.00000e+00 0.00000e+00
4.50250e-16 -2.48956e-16 -2.22530e-03
2.13087e-16 -2.70172e-16 -7.93530e-03
-2.32004e-16 -6.88444e-17 -1.55303e-02
-1.62641e-17 -9.70170e-16 -2.38155e-02
1.20586e-15 -5.13532e-16 -3.19157e-02
3.52960e-16 -8.14132e-16 -3.92041e-02
7.28522e-16 -9.09883e-16 -4.52429e-02
-9.13525e-17 -1.31340e-15 -4.97377e-02
-3.64739e-16 -2.69182e-16 -5.25022e-02
-1.92342e-16 -3.31671e-16 -5.34346e-02
1.59878e-15 -1.17811e-15 -5.25021e-02
-1.46721e-16 -3.11516e-17 -4.97376e-02
1.73381e-16 -2.11187e-16 -4.52428e-02
1.39326e-15 -2.85595e-16 -3.92041e-02
1.46903e-15 -1.05114e-15 -3.19158e-02
7.70895e-16 -8.34159e-16 -2.38155e-02
1.58331e-16 -2.63306e-16 -1.55304e-02
2.25965e-16 -1.01241e-15 -7.93533e-03
-5.16157e-16 3.26821e-16 -2.22532e-03
0.00000e+00 0.00000e+00 0.00000e+00
0.00000e+00 0.00000e+00 0.00000e+00
2.76281e-16 -6.09919e-17 -2.26119e-03
5.73622e-16 -1.60325e-16 -8.06571e-03
-6.43231e-16 -5.44068e-16 -1.57906e-02
-7.36071e-16 -5.75554e-16 -2.42212e-02
1.02588e-15 1.53858e-16 -3.24668e-02
7.81907e-16 2.01467e-16 -3.98883e-02
1.53929e-16 3.68669e-16 -4.60390e-02
1.21268e-17 3.70455e-16 -5.06179e-02
-3.94228e-17 -2.52651e-16 -5.34346e-02
-3.69962e-16 -3.36746e-16 -5.43845e-02
8.21879e-16 -2.63470e-16 -5.34346e-02
8.05496e-17 -3.99707e-16 -5.06178e-02
2.38211e-17 -8.52815e-16 -4.60391e-02
6.75737e-16 -9.84717e-16 -3.98884e-02
-1.96168e-16 -1.18219e-15 -3.24670e-02
5.54325e-16 -3.74497e-16 -2.42213e-02
-8.51739e-17 -2.32206e-17 -1.57907e-02
3.27891e-16 -5.58778e-16 -8.06577e-03
-4.36051e-16 2.98774e-16 -2.26122e-03
0.00000e+00 0.00000e+00 0.00000e+00
0.00000e+00 0.00000e+00 0.00000e+00
-6.61929e-17 -1.49304e-16 -2.22528e-03
1.06903e-15 1.09007e-16 -7.93520e-03
7.63080e-16 -1.55966e-16 -1.55302e-02
-2.66630e-16 -9.46197e-18 -2.38153e-02
1.04855e-15 -3.05646e-16 -3.19156e-02
-3.59719e-16 -7.40091e-16 -3.92040e-02
-7.15565e-17 -4.65486e-16 -4.52427e-02
1.39609e-16 -1.69366e-16 -4.97376e-02
-2.53963e-16 2.53604e-16 -5.25022e-02
6.72083e-16 -5.11841e-16 -5.34346e-02
3.52980e-16 -5.77987e-17 -5.25022e-02
-3.33117e-16 1.18787e-16 -4.97377e-02
-7.94680e-16 -4.55291e-16 -4.52429e-02
-5.10529e-16 -4.90310e-16 -3.92042e-02
3.22088e-16 -3.98596e-16 -3.19159e-02
4.77491e-16 2.71148e-16 -2.38156e-02
2.36978e-16 2.50295e-16 -1.55304e-02
9.42341e-16 -6.43745e-16 -7.93534e-03
8.95491e-16 -3.23706e-16 -2.22532e-03
0.00000e+00 0.00000e+00 0.00000e+00
0.00000e+00 0.00000e+00 0.00000e+00
-4.02865e-16 4.86507e-17 -2.11811e-03
1.79162e-16 1.00691e-16 -7.54633e-03
6.93800e-16 1.14272e-16 -1.47553e-02
-3.65364e-16 -7.22112e-16 -2.26088e-02
5.59357e-16 -5.10988e-16 -3.02784e-02
8.35332e-16 -4.85155e-16 -3.71727e-02
5.66360e-16 -3.42371e-16 -4.28807e-02
-2.16645e-17 -2.11295e-16 -4.71268e-02
-3.13173e-16 -9.30029e-17 -4.97375e-02
-3.22452e-16 -9.23735e-16 -5.06177e-02
-1.25067e-16 -4.71557e-16 -4.97375e-02
-6.41594e-18 -3.86177e-16 -4.71269e-02
5.60088e-16 -7.56516e-16 -4.28810e-02
2.69681e-16 -6.17639e-16 -3.71730e-02
2.69447e-16 -1.63888e-16 -3.02788e-02
2.67740e-16 -3.24759e-16 -2.26092e-02
4.60323e-17 -4.80688e-17 -1.47557e-02
1.68149e-15 -4.31796e-17 -7.54654e-03
-5.64189e-17 -2.06982e-16 -2.11818e-03
0.00000e+00 0.00000e+00 0.00000e+00
0.00000e+00 0.00000e+00 0.00000e+00
6.94206e-17 -5.69341e-16 -1.94166e-03
1.77237e-16 -8.40369e-16 -6.90773e-03
1.00732e-15 -1.78508e-16 -1.34862e-02
4.87663e-16 -2.03587e-16 -2.06371e-02
9.96823e-17 -1.11201e-15 -2.76075e-02
5.68756e-16 -3.45051e-16 -3.38636e-02
7.38155e-16 -7.65732e-16 -3.90364e-02
3.23985e-16 3.94360e-16 -4.28806e-02
1.85282e-16 -2.32598e-16 -4.52425e-02
8.89073e-17 -1.45572e-15 -4.60387e-02
5.79359e-16 1.08915e-16 -4.52426e-02
9.61946e-16 1.05859e-16 -4.28808e-02
6.40694e-16 1.65653e-16 -3.90366e-02
1.38278e-15 -4.30333e-16 -3.38639e-02
4.26618e-16 -4.40814e-16 -2.76079e-02
9.42901e-16 -1.00253e-15 -2.06375e-02
-3.86162e-18 -1.06775e-15 -1.34866e-02
3.84337e-16 -9.54933e-16 -6.90797e-03
8.69792e-16 -3.59528e-16 -1.94174e-03
0.00000e+00 0.00000e+00 0.00000e+00
0.00000e+00 0.00000e+00 0.00000e+00
2.77128e-16 -4.49527e-16 -1.70002e-03
-4.43419e-16 -6.39964e-16 -6.03655e-03
-3.78989e-16 -1.22797e-15 -1.17620e-02
6.23758e-17 -5.92301e-16 -1.79675e-02
1.07122e-15 -8.12817e-16 -2.40011e-02
3.86133e-16 -4.80245e-16 -2.94041e-02
3.92089e-16 -1.05407e-16 -3.38635e-02
7.89600e-16 1.58064e-16 -3.71725e-02
7.82295e-16 -1.16638e-15 -3.92036e-02
3.00176e-16 -6.38458e-16 -3.98879e-02
8.06178e-16 -5.62518e-16 -3.92037e-02
4.45821e-16 -7.28971e-16 -3.71727e-02
1.84392e-16 4.53325e-16 -3.38637e-02
-3.91755e-17 1.72106e-16 -2.94045e-02
1.08393e-15 -7.09496e-16 -2.40015e-02
8.55768e-16 -5.10640e-16 -1.79679e-02
2.19787e-16 -1.37957e-15 -1.17623e-02
7.06205e-16 -3.69795e-16 -6.03676e-03
3.45042e-16 -6.72386e-16 -1.70008e-03
0.00000e+00 0.00000e+00 0.00000e+00
0.00000e+00 0.00000e+00 0.00000e+00
-3.95549e-16 -8.03598e-16 -1.40075e-03
4.01726e-16 5.17956e-16 -4.96366e-03
-3.14248e-16 -3.54242e-16 -9.65059e-03
-3.76530e-16 -5.15638e-16 -1.47134e-02
1.27600e-15 -1.33256e-15 -1.96200e-02
-6.01567e-16 -8.74253e-16 -2.40010e-02
1.52377e-15 -7.14224e-16 -2.76074e-02
4.10134e-16 -6.94267e-17 -3.02782e-02
3.17198e-16 -5.89835e-16 -3.19152e-02
8.83574e-16 -1.21504e-15 -3.24664e-02
4.45211e-16 -5.15133e-16 -3.19153e-02
1.01004e-15 -5.83522e-16 -3.02783e-02
8.95564e-16 -2.96781e-16 -2.76076e-02
7.81821e-16 -3.00645e-16 -2.40013e-02
4.57616e-16 -1.05696e-15 -1.96204e-02
-4.54200e-16 -6.94824e-16 -1.47138e-02
2.89021e-16 -1.01314e-15 -9.65094e-03
1.83552e-17 -9.35006e-16 -4.96383e-03
1.43675e-15 -1.22939e-15 -1.40080e-03
0.00000e+00 0.00000e+00 0.00000e+00
0.00000e+00 0.00000e+00 0.00000e+00
-6.19344e-16 -2.41102e-16 -1.05732e-03
-3.80676e-16 7.01253e-17 -3.74190e-03
1.04616e-15 -1.60186e-16 -7.26327e-03
-1.00086e-17 -1.20307e-15 -1.10540e-02
1.31924e-16 -1.75178e-15 -1.47133e-02
1.27019e-16 -1.24803e-15 -1.79675e-02
1.38313e-15 6.25543e-16 -2.06370e-02
3.57603e-16 -7.84621e-16 -2.26086e-02
1.69338e-16 1.57117e-16 -2.38150e-02
4.92596e-16 -7.66396e-16 -2.42208e-02
4.32747e-16 -9.46517e-16 -2.38150e-02
1.62059e-15 -8.26898e-16 -2.26087e-02
2.88793e-16 -5.91898e-16 -2.06372e-02
3.78456e-16 -4.26294e-17 -1.79678e-02
4.70897e-16 -8.19032e-16 -1.47137e-02
1.24438e-15 -1.71961e-15 -1.10544e-02
1.06125e-15 9.18270e-17 -7.26352e-03
8.53452e-16 -5.33098e-16 -3.74207e-03
4.83530e-16 -1.10753e-15 -1.05736e-03
0.00000e+00 0.00000e+00 0.00000e+00
0.00000e+00 0.00000e+00 0.00000e+00
6.88897e-16 -2.49580e-16 -6.93385e-04
5.92699e-16 -4.13470e-16 -2.45823e-03
1.03309e-16 -1.00241e-15 -4.77600e-03
1.25833e-16 -9.80602e-16 -7.26326e-03
9.82630e-18 -6.43531e-16 -9.65056e-03
1.63977e-15 -7.99054e-16 -1.17619e-02
8.48625e-16 -4.05143e-16 -1.34861e-02
9.82519e-16 -5.64148e-16 -1.47552e-02
7.53867e-16 -1.11171e-15 -1.55299e-02
3.96030e-16 -4.64357e-16 -1.57902e-02
1.77242e-15 -9.81339e-16 -1.55300e-02
1.31326e-15 -1.25901e-15 -1.47553e-02
1.17208e-16 -7.37183e-16 -1.34863e-02
1.63334e-16 -5.72641e-16 -1.17622e-02
-7.71745e-17 1.95504e-16 -9.65090e-03
8.49310e-16 -7.39532e-16 -7.26350e-03
7.72825e-16 -2.58385e-16 -4.77622e-03
6.37628e-16 -2.08039e-16 -2.45833e-03
7.53301e-16 -3.16106e-16 -6.93426e-04
0.00000e+00 0.00000e+00 0.00000e+00
0.00000e+00 0.00000e+00 0.00000e+00
1.22470e-15 -6.73228e-16 -3.47830e-04
-4.94842e-16 -1.39188e-16 -1.25444e-03
5.07932e-16 -1.13181e-16 -2.45822e-03
6.32746e-16 -1.10435e-15 -3.74190e-03
2.57575e-16 -4.22196e-16 -4.96366e-03
-3.54986e-16 -3.31539e-16 -6.03649e-03
-8.72453e-16 -7.34378e-16 -6.90768e-03