<?xml version="1.0"?>
<VTKFile type="UnstructuredGrid" version="0.1" byte_order="LittleEndian">
<UnstructuredGrid>
<Piece NumberOfPoints="441" NumberOfCells="400">
<Points>
<DataArray type="Float32" NumberOfComponents="3" format="ascii">
5.00000e-01 5.00000e-01 0.00000e+00
4.50000e-01 5.00000e-01 0.00000e+00
4.00000e-01 5.00000e-01 0.00000e+00
3.50000e-01 5.00000e-01 0.00000e+00
3.00000e-01 5.00000e-01 0.00000e+00
2.50000e-01 5.00000e-01 0.00000e+00
2.00000e-01 5.00000e-01 0.00000e+00
1.50000e-01 5.00000e-01 0.00000e+00
1.00000e-01 5.00000e-01 0.00000e+00
5.00000e-02 5.00000e-01 0.00000e+00
0.00000e+00 5.00000e-01 0.00000e+00
-5.00000e-02 5.00000e-01 0.00000e+00
-1.00000e-01 5.00000e-01 0.00000e+00
-1.50000e-01 5.00000e-01 0.00000e+00
-2.00000e-01 5.00000e-01 0.00000e+00
-2.50000e-01 5.00000e-01 0.00000e+00
-3.00000e-01 5.00000e-01 0.00000e+00
-3.50000e-01 5.00000e-01 0.00000e+00
-4.00000e-01 5.00000e-01 0.00000e+00
-4.50000e-01 5.00000e-01 0.00000e+00
-5.00000e-01 5.00000e-01 0.00000e+00
5.00000e-01 4.50000e-01 0.00000e+00
4.50000e-01 4.50000e-01 0.00000e+00
4.00000e-01 4.50000e-01 0.00000e+00
3.50000e-01 4.50000e-01 0.00000e+00
3.00000e-01 4.50000e-01 0.00000e+00
2.50000e-01 4.50000e-01 0.00000e+00
2.00000e-01 4.50000e-01 0.00000e+00
1.50000e-01 4.50000e-01 0.00000e+00
1.00000e-01 4.50000e-01 0.00000e+00
5.00000e-02 4.50000e-01 0.00000e+00
0.00000e+00 4.50000e-01 0.00000e+00
-5.00000e-02 4.50000e-01 0.00000e+00
-1.00000e-01 4.50000e-01 0.00000e+00
-1.50000e-01 4.50000e-01 0.00000e+00
-2.00000e-01 4.50000e-01 0.00000e+00
-2.50000e-01 4.50000e-01 0.00000e+00
-3.00000e-01 4.50000e-01 0.00000e+00
-3.50000e-01 4.50000e-01 0.00000e+00
-4.00000e-01 4.50000e-01 0.00000e+00
-4.50000e-01 4.50000e-01 0.00000e+00
-5.00000e-01 4.50000e-01 0.00000e+00
5.00000e-01 4.00000e-01 0.00000e+00
4.50000e-01 4.00000e-01 0.00000e+00
4.00000e-01 4.00000e-01 0.00000e+00
3.50000e-01 4.00000e-01 0.00000e+00
3.00000e-01 4.00000e-01 0.00000e+00
2.50000e-01 4.00000e-01 0.00000e+00
2.00000e-01 4.00000e-01 0.00000e+00
1.50000e-01 4.00000e-01 0.00000e+00
1.00000e-01 4.00000e-01 0.00000e+00
5.00000e-02 4.00000e-01 0.00000e+00
0.00000e+00 4.00000e-01 0.00000e+00
-5.00000e-02 4.00000e-01 0.00000e+00
-1.00000e-01 4.00000e-01 0.00000e+00
-1.50000e-01 4.00000e-01 0.00000e+00
-2.00000e-01 4.00000e-01 0.00000e+00
-2.50000e-01 4.00000e-01 0.00000e+00
-3.00000e-01 4.00000e-01 0.00000e+00
-3.50000e-01 4.00000e-01 0.00000e+00
-4.00000e-01 4.00000e-01 0.00000e+00
-4.50000e-01 4.00000e-01 0.00000e+00
-5.00000e-01 4.00000e-01 0.00000e+00
5.00000e-01 3.50000e-01 0.00000e+00
4.50000e-01 3.50000e-01 0.00000e+00
4.00000e-01 3.50000e-01 0.00000e+00
3.50000e-01 3.50000e-01 0.00000e+00
3.00000e-01 3.50000e-01 0.00000e+00
2.50000e-01 3.50000e-01 0.00000e+00
2.00000e-01 3.50000e-01 0.00000e+00
1.50000e-01 3.50000e-01 0.00000e+00
1.00000e-01 3.50000e-01 0.00000e+00
5.00000e-02 3.50000e-01 0.00000e+00
0.00000e+00 3.50000e-01 0.00000e+00
-5.00000e-02 3.50000e-01 0.00000e+00
-1.00000e-01 3.50000e-01 0.00000e+00
-1.50000e-01 3.50000e-01 0.00000e+00
-2.00000e-01 3.50000e-01 0.00000e+00
-2.50000e-01 3.50000e-01 0.00000e+00
-3.00000e-01 3.50000e-01 0.00000e+00
-3.50000e-01 3.50000e-01 0.00000e+00
-4.00000e-01 3.50000e-01 0.00000e+00
-4.50000e-01 3.50000e-01 0.00000e+00
-5.00000e-01 3.50000e-01 0.00000e+00
5.00000e-01 3.00000e-01 0.00000e+00
4.50000e-01 3.00000e-01 0.00000e+00
4.00000e-01 3.00000e-01 0.00000e+00
3.50000e-01 3.00000e-01 0.00000e+00
3.00000e-01 3.00000e-01 0.00000e+00
2.50000e-01 3.00000e-01 0.00000e+00
2.00000e-01 3.00000e-01 0.00000e+00
1.50000e-01 3.00000e-01 0.00000e+00
1.00000e-01 3.00000e-01 0.00000e+00
5.00000e-02 3.00000e-01 0.00000e+00
0.00000e+00 3.00000e-01 0.00000e+00
-5.00000e-02 3.00000e-01 0.00000e+00
-1.00000e-01 3.00000e-01 0.00000e+00
-1.50000e-01 3.00000e-01 0.00000e+00
-2.00000e-01 3.00000e-01 0.00000e+00
-2.50000e-01 3.00000e-01 0.00000e+00
-3.00000e-01 3.00000e-01 0.00000e+00
-3.50000e-01 3.00000e-01 0.00000e+00
-4.00000e-01 3.00000e-01 0.00000e+00
-4.50000e-01 3.00000e-01 0.00000e+00
-5.00000e-01 3.00000e-01 0.00000e+00
5.00000e-01 2.50000e-01 0.00000e+00
4.50000e-01 2.50000e-01 0.00000e+00
4.00000e-01 2.50000e-01 0.00000e+00
3.50000e-01 2.50000e-01 0.00000e+00
3.00000e-01 2.50000e-01 0.00000e+00
2.50000e-01 2.50000e-01 0.00000e+00
2.00000e-01 2.50000e-01 0.00000e+00
1.50000e-01 2.50000e-01 0.00000e+00
1.00000e-01 2.50000e-01 0.00000e+00
5.00000e-02 2.50000e-01 0.00000e+00
0.00000e+00 2.50000e-01 0.00000e+00
-5.00000e-02 2.50000e-01 0.00000e+00
-1.00000e-01 2.50000e-01 0.00000e+00
-1.50000e-01 2.50000e-01 0.00000e+00
-2.00000e-01 2.50000e-01 0.00000e+00
-2.50000e-01 2.50000e-01 0.00000e+00
-3.00000e-01 2.50000e-01 0.00000e+00
-3.50000e-01 2.50000e-01 0.00000e+00
-4.00000e-01 2.50000e-01 0.00000e+00
-4.50000e-01 2.50000e-01 0.00000e+00
-5.00000e-01 2.50000e-01 0.00000e+00
5.00000e-01 2.00000e-01 0.00000e+00
4.50000e-01 2.00000e-01 0.00000e+00
4.00000e-01 2.00000e-01 0.00000e+00
3.50000e-01 2.00000e-01 0.00000e+00
3.00000e-01 2.00000e-01 0.00000e+00
2.50000e-01 2.00000e-01 0.00000e+00
2.00000e-01 2.00000e-01 0.00000e+00
1.50000e-01 2.00000e-01 0.00000e+00
1.00000e-01 2.00000e-01 0.00000e+00
5.00000e-02 2.00000e-01 0.00000e+00
0.00000e+00 2.00000e-01 0.00000e+00
-5.00000e-02 2.00000e-01 0.00000e+00
-1.00000e-01 2.00000e-01 0.00000e+00
-1.50000e-01 2.00000e-01 0.00000e+00
-2.00000e-01 2.00000e-01 0.00000e+00
-2.50000e-01 2.00000e-01 0.00000e+00
-3.00000e-01 2.00000e-01 0.00000e+00
-3.50000e-01 2.00000e-01 0.00000e+00
-4.00000e-01 2.00000e-01 0.00000e+00
-4.50000e-01 2.00000e-01 0.00000e+00
-5.00000e-01 2.00000e-01 0.00000e+00
5.00000e-01 1.50000e-01 0.00000e+00
4.50000e-01 1.50000e-01 0.00000e+00
4.00000e-01 1.50000e-01 0.00000e+00
3.50000e-01 1.50000e-01 0.00000e+00
3.00000e-01 1.50000e-01 0.00000e+00
2.50000e-01 1.50000e-01 0.00000e+00
2.00000e-01 1.50000e-01 0.00000e+00
1.50000e-01 1.50000e-01 0.00000e+00
1.00000e-01 1.50000e-01 0.00000e+00
5.00000e-02 1.50000e-01 0.00000e+00
0.00000e+00 1.50000e-01 0.00000e+00
-5.00000e-02 1.50000e-01 0.00000e+00
-1.00000e-01 1.50000e-01 0.00000e+00
-1.50000e-01 1.50000e-01 0.00000e+00
-2.00000e-01 1.50000e-01 0.00000e+00
-2.50000e-01 1.50000e-01 0.00000e+00
-3.00000e-01 1.50000e-01 0.00000e+00
-3.50000e-01 1.50000e-01 0.00000e+00
-4.00000e-01 1.50000e-01 0.00000e+00
-4.50000e-01 1.50000e-01 0.00000e+00
-5.00000e-01 1.50000e-01 0.00000e+00
5.00000e-01 1.00000e-01 0.00000e+00
4.50000e-01 1.00000e-01 0.00000e+00
4.00000e-01 1.00000e-01 0.00000e+00
3.50000e-01 1.00000e-01 0.00000e+00
3.00000e-01 1.00000e-01 0.00000e+00
2.50000e-01 1.00000e-01 0.00000e+00
2.00000e-01 1.00000e-01 0.00000e+00
1.50000e-01 1.00000e-01 0.00000e+00
1.00000e-01 1.00000e-01 0.00000e+00
5.00000e-02 1.00000e-01 0.00000e+00
0.00000e+00 1.00000e-01 0.00000e+00
-5.00000e-02 1.00000e-01 0.00000e+00
-1.00000e-01 1.00000e-01 0.00000e+00
-1.50000e-01 1.00000e-01 0.00000e+00
-2.00000e-01 1.00000e-01 0.00000e+00
-2.50000e-01 1.00000e-01 0.00000e+00
-3.00000e-01 1.00000e-01 0.00000e+00
-3.50000e-01 1.00000e-01 0.00000e+00
-4.00000e-01 1.00000e-01 0.00000e+00
-4.50000e-01 1.00000e-01 0.00000e+00
-5.00000e-01 1.00000e-01 0.00000e+00
5.00000e-01 5.00000e-02 0.00000e+00
4.50000e-01 5.00000e-02 0.00000e+00
4.00000e-01 5.00000e-02 0.00000e+00
3.50000e-01 5.00000e-02 0.00000e+00
3.00000e-01 5.00000e-02 0.00000e+00
2.50000e-01 5.00000e-02 0.00000e+00
2.00000e-01 5.00000e-02 0.00000e+00
1.50000e-01 5.00000e-02 0.00000e+00
1.00000e-01 5.00000e-02 0.00000e+00
5.00000e-02 5.00000e-02 0.00000e+00
0.00000e+00 5.00000e-02 0.00000e+00
-5.00000e-02 5.00000e-02 0.00000e+00
-1.00000e-01 5.00000e-02 0.00000e+00
-1.50000e-01 5.00000e-02 0.00000e+00
-2.00000e-01 5.00000e-02 0.00000e+00
-2.50000e-01 5.00000e-02 0.00000e+00
-3.00000e-01 5.00000e-02 0.00000e+00
-3.50000e-01 5.00000e-02 0.00000e+00
-4.00000e-01 5.00000e-02 0.00000e+00
-4.50000e-01 5.00000e-02 0.00000e+00
-5.00000e-01 5.00000e-02 0.00000e+00
5.00000e-01 0.00000e+00 0.00000e+00
4.50000e-01 0.00000e+00 0.00000e+00
4.00000e-01 0.00000e+00 0.00000e+00
3.50000e-01 0.00000e+00 0.00000e+00
3.00000e-01 0.00000e+00 0.00000e+00
2.50000e-01 0.00000e+00 0.00000e+00
2.00000e-01 0.00000e+00 0.00000e+00
1.50000e-01 0.00000e+00 0.00000e+00
1.00000e-01 0.00000e+00 0.00000e+00
5.00000e-02 0.00000e+00 0.00000e+00
0.00000e+00 0.00000e+00 0.00000e+00
-5.00000e-02 0.00000e+00 0.00000e+00
-1.00000e-01 0.00000e+00 0.00000e+00
-1.50000e-01 0.00000e+00 0.00000e+00
-2.00000e-01 0.00000e+00 0.00000e+00
-2.50000e-01 0.00000e+00 0.00000e+00
-3.00000e-01 0.00000e+00 0.00000e+00
-3.50000e-01 0.00000e+00 0.00000e+00
-4.00000e-01 0.00000e+00 0.00000e+00
-4.50000e-01 0.00000e+00 0.00000e+00
-5.00000e-01 0.00000e+00 0.00000e+00
5.00000e-01 -5.00000e-02 0.00000e+00
4.50000e-01 -5.00000e-02 0.00000e+00
4.00000e-01 -5.00000e-02 0.00000e+00
3.50000e-01 -5.00000e-02 0.00000e+00
3.00000e-01 -5.00000e-02 0.00000e+00
2.50000e-01 -5.00000e-02 0.00000e+00
2.00000e-01 -5.00000e-02 0.00000e+00
1.50000e-01 -5.00000e-02 0.00000e+00
1.00000e-01 -5.00000e-02 0.00000e+00
5.00000e-02 -5.00000e-02 0.00000e+00
0.00000e+00 -5.00000e-02 0.00000e+00
-5.00000e-02 -5.00000e-02 0.00000e+00
-1.00000e-01 -5.00000e-02 0.00000e+00
-1.50000e-01 -5.00000e-02 0.00000e+00
-2.00000e-01 -5.00000e-02 0.00000e+00
-2.50000e-01 -5.00000e-02 0.00000e+00
-3.00000e-01 -5.00000e-02 0.00000e+00
-3.50000e-01 -5.00000e-02 0.00000e+00
-4.00000e-01 -5.00000e-02 0.00000e+00
-4.50000e-01 -5.00000e-02 0.00000e+00
-5.00000e-01 -5.00000e-02 0.00000e+00
5.00000e-01 -1.00000e-01 0.00000e+00
4.50000e-01 -1.00000e-01 0.00000e+00
4.00000e-01 -1.00000e-01 0.00000e+00
3.50000e-01 -1.00000e-01 0.00000e+00
3.00000e-01 -1.00000e-01 0.00000e+00
2.50000e-01 -1.00000e-01 0.00000e+00
2.00000e-01 -1.00000e-01 0.00000e+00
1.50000e-01 -1.00000e-01 0.00000e+00
1.00000e-01 -1.00000e-01 0.00000e+00
5.00000e-02 -1.00000e-01 0.00000e+00
0.00000e+00 -1.00000e-01 0.00000e+00
-5.00000e-02 -1.00000e-01 0.00000e+00
-1.00000e-01 -1.00000e-01 0.00000e+00
-1.50000e-01 -1.00000e-01 0.00000e+00
[...]
<PointData>
<DataArray Name="Mises" type="Float32" format="ascii">
0.00000e+00
0.00000e+00
0.00000e+00
0.00000e+00
0.00000e+00
0.00000e+00
0.00000e+00
0.00000e+00
0.00000e+00
0.00000e+00
0.00000e+00
0.00000e+00
0.00000e+00
0.00000e+00
0.00000e+00
0.00000e+00
0.00000e+00
0.00000e+00
0.00000e+00
0.00000e+00
0.00000e+00
0.00000e+00
0.00000e+00
0.00000e+00
0.00000e+00
0.00000e+00
0.00000e+00
0.00000e+00
0.00000e+00
0.00000e+00
0.00000e+00
0.00000e+00
0.00000e+00
0.00000e+00
0.00000e+00
0.00000e+00
0.00000e+00
0.00000e+00
0.00000e+00
0.00000e+00
0.00000e+00
0.00000e+00
0.00000e+00
0.00000e+00
0.00000e+00
0.00000e+00
0.00000e+00
0.00000e+00
0.00000e+00
0.00000e+00
0.00000e+00
0.00000e+00
0.00000e+00
0.00000e+00
0.00000e+00
0.00000e+00
0.00000e+00
0.00000e+00
0.00000e+00
0.00000e+00
0.00000e+00
0.00000e+00
0.00000e+00
0.00000e+00
0.00000e+00
0.00000e+00
0.00000e+00
0.00000e+00
0.00000e+00
0.00000e+00
0.00000e+00
0.00000e+00
0.00000e+00
0.00000e+00
0.00000e+00
0.00000e+00
0.00000e+00
0.00000e+00
0.00000e+00
0.00000e+00
0.00000e+00
0.00000e+00
0.00000e+00
0.00000e+00
0.00000e+00
0.00000e+00
0.00000e+00
0.00000e+00
0.00000e+00
0.00000e+00
0.00000e+00
0.00000e+00
0.00000e+00
0.00000e+00
0.00000e+00
0.00000e+00
0.00000e+00
0.00000e+00
0.00000e+00
0.00000e+00
0.00000e+00
0.00000e+00
0.00000e+00
0.00000e+00
0.00000e+00
0.00000e+00
0.00000e+00
0.00000e+00
0.00000e+00
0.00000e+00
0.00000e+00
0.00000e+00
0.00000e+00
0.00000e+00
0.00000e+00
0.00000e+00
0.00000e+00
0.00000e+00
0.00000e+00
0.00000e+00
0.00000e+00
0.00000e+00
0.00000e+00
0.00000e+00
0.00000e+00
0.00000e+00
0.00000e+00
0.00000e+00
0.00000e+00
0.00000e+00
0.00000e+00
0.00000e+00
0.00000e+00
0.00000e+00
0.00000e+00
0.00000e+00
0.00000e+00
0.00000e+00
0.00000e+00
0.00000e+00
0.00000e+00
0.00000e+00
0.00000e+00
0.00000e+00
0.00000e+00
0.00000e+00
0.00000e+00
0.00000e+00
0.00000e+00
0.00000e+00
0.00000e+00
0.00000e+00
0.00000e+00
0.00000e+00
0.00000e+00
0.00000e+00
0.00000e+00
0.00000e+00
0.00000e+00
0.00000e+00
0.00000e+00
0.00000e+00
0.00000e+00
0.00000e+00
0.00000e+00
0.00000e+00
0.00000e+00
0.00000e+00
0.00000e+00
0.00000e+00
0.00000e+00
0.00000e+00
0.00000e+00
0.00000e+00
0.00000e+00
0.00000e+00
0.00000e+00
0.00000e+00
0.00000e+00
0.00000e+00
0.00000e+00
0.00000e+00
0.00000e+00
0.00000e+00
0.00000e+00
0.00000e+00
0.00000e+00
0.00000e+00
0.00000e+00
0.00000e+00
0.00000e+00
0.00000e+00
0.00000e+00
0.00000e+00
0.00000e+00
0.00000e+00
0.00000e+00
0.00000e+00
0.00000e+00
0.00000e+00
0.00000e+00
0.00000e+00
0.00000e+00
0.00000e+00
0.00000e+00
0.00000e+00
0.00000e+00
0.00000e+00
0.00000e+00
0.00000e+00
0.00000e+00
0.00000e+00
0.00000e+00
0.00000e+00
0.00000e+00
0.00000e+00
0.00000e+00
0.00000e+00
0.00000e+00
0.00000e+00
0.00000e+00
0.00000e+00
0.00000e+00
0.00000e+00
0.00000e+00
0.00000e+00
0.00000e+00
0.00000e+00
0.00000e+00
0.00000e+00
0.00000e+00
0.00000e+00
0.00000e+00
0.00000e+00
0.00000e+00
0.00000e+00
0.00000e+00
0.00000e+00
0.00000e+00
0.00000e+00
0.00000e+00
0.00000e+00
0.00000e+00
0.00000e+00
0.00000e+00
0.00000e+00
0.00000e+00
0.00000e+00
0.00000e+00
0.00000e+00
0.00000e+00
0.00000e+00
0.00000e+00
0.00000e+00
0.00000e+00
0.00000e+00
0.00000e+00
0.00000e+00
0.00000e+00
0.00000e+00
0.00000e+00
0.00000e+00
0.00000e+00
0.00000e+00
0.00000e+00
0.00000e+00
0.00000e+00
0.00000e+00
0.00000e+00
0.00000e+00
0.00000e+00
0.00000e+00
0.00000e+00
0.00000e+00
0.00000e+00
0.00000e+00
0.00000e+00
0.00000e+00
0.00000e+00
0.00000e+00
0.00000e+00
0.00000e+00
0.00000e+00
0.00000e+00
0.00000e+00
0.00000e+00
0.00000e+00
0.00000e+00
0.00000e+00
0.00000e+00
0.00000e+00
0.00000e+00
0.00000e+00
0.00000e+00
0.00000e+00
0.00000e+00
0.00000e+00
0.00000e+00
0.00000e+00
0.00000e+00
0.00000e+00
0.00000e+00
0.00000e+00
0.00000e+00
0.00000e+00
0.00000e+00
0.00000e+00
0.00000e+00
0.00000e+00
0.00000e+00
0.00000e+00
0.00000e+00
0.00000e+00
0.00000e+00
0.00000e+00
0.00000e+00
0.00000e+00
0.00000e+00
0.00000e+00
0.00000e+00
0.00000e+00
0.00000e+00
0.00000e+00
0.00000e+00
0.00000e+00
0.00000e+00
0.00000e+00
0.00000e+00
0.00000e+00
0.00000e+00
0.00000e+00
0.00000e+00
0.00000e+00
0.00000e+00
0.00000e+00
0.00000e+00
0.00000e+00
0.00000e+00
0.00000e+00
0.00000e+00
0.00000e+00
0.00000e+00
0.00000e+00
0.00000e+00
0.00000e+00
0.00000e+00
0.00000e+00
0.00000e+00
0.00000e+00
0.00000e+00
0.00000e+00
0.00000e+00
0.00000e+00
0.00000e+00
0.00000e+00
0.00000e+00
0.00000e+00
0.00000e+00
0.00000e+00
0.00000e+00
0.00000e+00
0.00000e+00
0.00000e+00
0.00000e+00
0.00000e+00
0.00000e+00
0.00000e+00
0.00000e+00
0.00000e+00
0.00000e+00
0.00000e+00
0.00000e+00
0.00000e+00
0.00000e+00
0.00000e+00
0.00000e+00
0.00000e+00
0.00000e+00
0.00000e+00
0.00000e+00
0.00000e+00
0.00000e+00
0.00000e+00
0.00000e+00
0.00000e+00
0.00000e+00
0.00000e+00
0.00000e+00
0.00000e+00
0.00000e+00
0.00000e+00
0.00000e+00
0.00000e+00
0.00000e+00
0.00000e+00
0.00000e+00
0.00000e+00
0.00000e+00
0.00000e+00
0.00000e+00
0.00000e+00
0.00000e+00
0.00000e+00
0.00000e+00
0.00000e+00
0.00000e+00
0.00000e+00
0.00000e+00
0.00000e+00
0.00000e+00
0.00000e+00
0.00000e+00
0.00000e+00
0.00000e+00
0.00000e+00
0.00000e+00
0.00000e+00
0.00000e+00
0.00000e+00
0.00000e+00
0.00000e+00
0.00000e+00
0.00000e+00
0.00000e+00
0.00000e+00
0.00000e+00
0.00000e+00
0.00000e+00
0.00000e+00
0.00000e+00
0.00000e+00
0.00000e+00
0.00000e+00
0.00000e+00
0.00000e+00
0.00000e+00
0.00000e+00
0.00000e+00
0.00000e+00
0.00000e+00
0.00000e+00
</DataArray>
<DataArray Name="Disp" type="Float32" NumberOfComponents="3" format="ascii">
0.00000e+00 0.00000e+00 0.00000e+00
0.00000e+00 0.00000e+00 0.00000e+00
0.00000e+00 0.00000e+00 0.00000e+00
0.00000e+00 0.00000e+00 0.00000e+00
0.00000e+00 0.00000e+00 0.00000e+00
0.00000e+00 0.00000e+00 0.00000e+00
0.00000e+00 0.00000e+00 0.00000e+00
0.00000e+00 0.00000e+00 0.00000e+00
0.00000e+00 0.00000e+00 0.00000e+00
0.00000e+00 0.00000e+00 0.00000e+00
0.00000e+00 0.00000e+00 0.00000e+00
0.00000e+00 0.00000e+00 0.00000e+00
0.00000e+00 0.00000e+00 0.00000e+00
0.00000e+00 0.00000e+00 0.00000e+00
0.00000e+00 0.00000e+00 0.00000e+00
0.00000e+00 0.00000e+00 0.00000e+00
0.00000e+00 0.00000e+00 0.00000e+00
0.00000e+00 0.00000e+00 0.00000e+00
0.00000e+00 0.00000e+00 0.00000e+00
0.00000e+00 0.00000e+00 0.00000e+00
0.00000e+00 0.00000e+00 0.00000e+00
0.00000e+00 0.00000e+00 0.00000e+00
1.76478e-17 1.14799e-16 -9.24031e-05
-7.92153e-17 6.97608e-17 -3.47638e-04
6.71305e-18 1.44211e-16 -6.93048e-04
-1.75018e-16 1.02911e-16 -1.05717e-03
1.10214e-16 -8.15310e-17 -1.40050e-03
-8.62559e-17 2.77483e-17 -1.69950e-03
1.64923e-16 -2.73593e-16 -1.94157e-03
1.41698e-17 -3.27038e-17 -2.11791e-03
1.37008e-16 -3.37219e-16 -2.22532e-03
6.06234e-17 -1.78374e-16 -2.26123e-03
2.38480e-16 -3.76282e-16 -2.22473e-03
1.21986e-16 -1.96833e-16 -2.11774e-03
2.84990e-16 -3.78594e-16 -1.94108e-03
2.60040e-16 -2.02183e-16 -1.70018e-03
2.56010e-16 -2.88455e-16 -1.40097e-03
2.67044e-16 -2.62875e-16 -1.05731e-03
1.83590e-16 -2.34881e-16 -6.93405e-04
1.73395e-16 -1.30621e-16 -3.47783e-04
4.82588e-17 -1.63872e-16 -9.21080e-05
0.00000e+00 0.00000e+00 0.00000e+00
0.00000e+00 0.00000e+00 0.00000e+00
-8.96047e-17 8.37120e-17 -3.47523e-04
1.06744e-16 2.63437e-16 -1.25398e-03
-2.84942e-16 1.25743e-16 -2.45840e-03
2.78870e-16 1.26284e-16 -3.74147e-03
-2.46618e-16 1.86886e-18 -4.96267e-03
3.59692e-16 -2.82049e-16 -6.03541e-03
-1.05433e-16 -1.47876e-16 -6.90681e-03
3.65039e-16 -5.62731e-16 -7.54587e-03
1.57758e-16 -3.04974e-16 -7.93456e-03
5.12186e-16 -8.08260e-16 -8.06412e-03
3.95885e-16 -3.89691e-16 -7.93453e-03
7.23168e-16 -7.85141e-16 -7.54579e-03
5.21343e-16 -4.96563e-16 -6.90711e-03
6.14973e-16 -6.58653e-16 -6.03604e-03
6.32044e-16 -5.27402e-16 -4.96348e-03
5.04764e-16 -4.77389e-16 -3.74223e-03
4.74829e-16 -4.79729e-16 -2.45797e-03
3.25150e-16 -3.13736e-16 -1.25439e-03
2.42714e-16 -2.06716e-16 -3.48030e-04
0.00000e+00 0.00000e+00 0.00000e+00
0.00000e+00 0.00000e+00 0.00000e+00
8.71136e-17 1.95094e-16 -6.93195e-04
-2.18218e-16 1.67826e-16 -2.45803e-03
4.24308e-16 2.70310e-16 -4.77553e-03
-3.81181e-16 -5.50551e-17 -7.26328e-03
5.69690e-16 -5.21137e-17 -9.64972e-03
-2.21823e-16 -2.27114e-16 -1.17617e-02
7.70101e-16 -6.43479e-16 -1.34853e-02
1.93217e-16 -4.48205e-16 -1.47545e-02
8.69091e-16 -1.01499e-15 -1.55287e-02
4.91771e-16 -6.18375e-16 -1.57896e-02
9.95534e-16 -1.26965e-15 -1.55278e-02
7.74042e-16 -7.19396e-16 -1.47540e-02
1.02604e-15 -1.06884e-15 -1.34848e-02
8.80889e-16 -8.50337e-16 -1.17617e-02
8.56368e-16 -8.30748e-16 -9.65078e-03
7.72478e-16 -7.57929e-16 -7.26328e-03
5.30935e-16 -5.24700e-16 -4.77635e-03
4.46514e-16 -5.26092e-16 -2.45818e-03
2.11033e-16 -1.90791e-16 -6.93551e-04
0.00000e+00 0.00000e+00 0.00000e+00
0.00000e+00 0.00000e+00 0.00000e+00
-8.30053e-17 1.78772e-16 -1.05723e-03
3.64041e-16 2.49059e-16 -3.74147e-03
-3.40130e-16 9.14949e-17 -7.26346e-03
8.35260e-16 1.49948e-16 -1.10538e-02
-2.45125e-16 -2.81300e-16 -1.47120e-02
1.13509e-15 -4.07458e-16 -1.79654e-02
6.06345e-17 -6.77130e-16 -2.06346e-02
1.29471e-15 -1.06750e-15 -2.26063e-02
5.83064e-16 -7.86787e-16 -2.38136e-02
1.40256e-15 -1.53140e-15 -2.42194e-02
9.35877e-16 -1.02391e-15 -2.38126e-02
1.31688e-15 -1.52383e-15 -2.26069e-02
1.12206e-15 -1.12251e-15 -2.06354e-02
1.25039e-15 -1.20371e-15 -1.79665e-02
1.04570e-15 -1.03686e-15 -1.47130e-02
8.22316e-16 -8.24551e-16 -1.10541e-02
7.62522e-16 -7.99039e-16 -7.26360e-03
3.93748e-16 -4.30101e-16 -3.74236e-03
2.23297e-16 -3.36049e-16 -1.05717e-03
0.00000e+00 0.00000e+00 0.00000e+00
0.00000e+00 0.00000e+00 0.00000e+00
2.47038e-16 2.28767e-16 -1.40115e-03
-2.40055e-16 1.43151e-16 -4.96379e-03
7.68854e-16 2.44174e-16 -9.65045e-03
-2.32177e-16 -2.08666e-16 -1.47126e-02
1.30594e-15 -1.44514e-16 -1.96188e-02
9.54003e-17 -8.08867e-16 -2.39994e-02
1.71292e-15 -8.04895e-16 -2.76056e-02
4.43503e-16 -1.12853e-15 -3.02771e-02
1.81651e-15 -1.40055e-15 -3.19152e-02
1.00072e-15 -1.29878e-15 -3.24651e-02
1.69794e-15 -1.66337e-15 -3.19129e-02
1.38497e-15 -1.41401e-15 -3.02762e-02
1.51396e-15 -1.49949e-15 -2.76060e-02
1.33625e-15 -1.37625e-15 -2.39998e-02
1.17590e-15 -1.08185e-15 -1.96197e-02
1.08083e-15 -1.15510e-15 -1.47135e-02
6.91368e-16 -6.85967e-16 -9.65065e-03
6.54905e-16 -7.11942e-16 -4.96383e-03
2.73226e-16 -1.85569e-16 -1.40064e-03
0.00000e+00 0.00000e+00 0.00000e+00
0.00000e+00 0.00000e+00 0.00000e+00
-1.07568e-16 9.55345e-17 -1.69995e-03
7.11273e-16 3.35448e-16 -6.03632e-03
-1.80561e-16 -1.70945e-16 -1.17615e-02
1.31961e-15 7.26208e-17 -1.79679e-02
8.21176e-17 -8.18321e-16 -2.40006e-02
1.90586e-15 -5.01728e-16 -2.94026e-02
3.33429e-16 -1.30565e-15 -3.38620e-02
2.24630e-15 -1.19690e-15 -3.71693e-02
9.88599e-16 -1.64934e-15 -3.92018e-02
2.17984e-15 -1.52755e-15 -3.98859e-02
1.50485e-15 -1.78333e-15 -3.92011e-02
1.90312e-15 -1.54054e-15 -3.71705e-02
1.73387e-15 -1.69672e-15 -3.38622e-02
1.55025e-15 -1.26329e-15 -2.94023e-02
1.44965e-15 -1.49695e-15 -2.40000e-02
1.05646e-15 -9.18124e-16 -1.79670e-02
1.00375e-15 -1.08897e-15 -1.17621e-02
5.65901e-16 -5.15968e-16 -6.03688e-03
3.67171e-16 -2.90983e-16 -1.70015e-03
0.00000e+00 0.00000e+00 0.00000e+00
0.00000e+00 0.00000e+00 0.00000e+00
4.17883e-16 2.35715e-16 -1.94143e-03
-8.15198e-17 -1.21388e-16 -6.90741e-03
1.26545e-15 2.68092e-16 -1.34851e-02
1.03789e-16 -6.79921e-16 -2.06350e-02
1.95379e-15 -2.59114e-16 -2.76064e-02
2.86528e-16 -1.31913e-15 -3.38615e-02
2.54561e-15 -8.62006e-16 -3.90351e-02
7.94082e-16 -1.90504e-15 -4.28789e-02
2.58986e-15 -1.42649e-15 -4.52413e-02
1.46557e-15 -2.12241e-15 -4.60367e-02
2.28022e-15 -1.44752e-15 -4.52406e-02
1.70532e-15 -2.13416e-15 -4.28784e-02
1.80058e-15 -1.29838e-15 -3.90347e-02
1.71784e-15 -1.77113e-15 -3.38609e-02
1.37423e-15 -1.15229e-15 -2.76065e-02
1.29666e-15 -1.30740e-15 -2.06363e-02
8.18720e-16 -7.81330e-16 -1.34859e-02
6.94372e-16 -6.52033e-16 -6.90836e-03
2.18484e-16 -1.30187e-16 -1.94258e-03
0.00000e+00 0.00000e+00 0.00000e+00
0.00000e+00 0.00000e+00 0.00000e+00
-7.35788e-17 -3.84156e-17 -2.11788e-03
9.12415e-16 2.09389e-16 -7.54512e-03
2.58675e-17 -4.88059e-16 -1.47535e-02
1.84113e-15 -6.71618e-17 -2.26069e-02
3.74067e-16 -1.24066e-15 -3.02766e-02
2.65113e-15 -6.44127e-16 -3.71721e-02
6.94529e-16 -1.90227e-15 -4.28798e-02
2.97549e-15 -1.14005e-15 -4.71253e-02
1.30329e-15 -2.47495e-15 -4.97359e-02
2.67733e-15 -1.19324e-15 -5.06160e-02
1.74045e-15 -2.54414e-15 -4.97353e-02
2.19730e-15 -1.17860e-15 -4.71240e-02
1.69146e-15 -2.16758e-15 -4.28786e-02
1.59468e-15 -1.20361e-15 -3.71708e-02
1.50638e-15 -1.67966e-15 -3.02770e-02
9.68870e-16 -8.56225e-16 -2.26077e-02
1.00968e-15 -1.03138e-15 -1.47551e-02
4.14904e-16 -3.54149e-16 -7.54739e-03
2.66012e-16 -2.16859e-16 -2.11838e-03
0.00000e+00 0.00000e+00 0.00000e+00
0.00000e+00 0.00000e+00 0.00000e+00
4.92504e-16 7.62635e-17 -2.22541e-03
8.98126e-21 -2.93010e-16 -7.93478e-03
1.54064e-15 -2.51277e-17 -1.55282e-02
3.43109e-16 -1.05489e-15 -2.38131e-02
2.45017e-15 -4.14305e-16 -3.19121e-02
6.29478e-16 -1.84855e-15 -3.92013e-02
3.06394e-15 -9.27826e-16 -4.52411e-02
1.18637e-15 -2.56443e-15 -4.97363e-02
3.17029e-15 -1.09181e-15 -5.25005e-02
1.73088e-15 -2.77518e-15 -5.34329e-02
2.59715e-15 -1.03991e-15 -5.25003e-02
1.73092e-15 -2.41957e-15 -4.97355e-02
1.98908e-15 -1.08325e-15 -4.52407e-02
1.51874e-15 -2.00919e-15 -3.92011e-02
1.06272e-15 -9.79223e-16 -3.19140e-02
1.20379e-15 -1.42740e-15 -2.38137e-02
5.08019e-16 -4.25561e-16 -1.55294e-02
5.04477e-16 -5.08195e-16 -7.93444e-03
1.23625e-16 -7.26248e-17 -2.22504e-03
0.00000e+00 0.00000e+00 0.00000e+00
0.00000e+00 0.00000e+00 0.00000e+00
3.45247e-18 -1.66326e-16 -2.26102e-03
1.06475e-15 1.40838e-17 -8.06509e-03
2.19200e-16 -7.56232e-16 -1.57885e-02
2.03353e-15 -4.21570e-16 -2.42191e-02
5.48645e-16 -1.55621e-15 -3.24654e-02
2.83983e-15 -7.93917e-16 -3.98866e-02
1.00248e-15 -2.39838e-15 -4.60375e-02
3.16412e-15 -1.09092e-15 -5.06164e-02
1.51442e-15 -2.81378e-15 -5.34331e-02
2.90925e-15 -9.37516e-16 -5.43829e-02
1.65291e-15 -2.58421e-15 -5.34327e-02
2.35106e-15 -8.47043e-16 -5.06159e-02
1.48807e-15 -2.21900e-15 -4.60370e-02
1.42283e-15 -8.40031e-16 -3.98866e-02
1.29144e-15 -1.62790e-15 -3.24654e-02
5.27710e-16 -5.69293e-16 -2.42188e-02
7.36273e-16 -9.29843e-16 -1.57895e-02
1.95159e-16 -7.33196e-17 -8.06456e-03
1.72948e-16 -1.97078e-16 -2.26065e-03
0.00000e+00 0.00000e+00 0.00000e+00
0.00000e+00 0.00000e+00 0.00000e+00
5.06534e-16 -1.18933e-17 -2.22488e-03
1.12578e-16 -5.18094e-16 -7.93346e-03
1.60071e-15 -2.76832e-16 -1.55284e-02
4.75976e-16 -1.32192e-15 -2.38137e-02
2.39360e-15 -6.76906e-16 -3.19138e-02
7.59302e-16 -2.17941e-15 -3.92028e-02
2.96751e-15 -1.02923e-15 -4.52414e-02
1.22132e-15 -2.77543e-15 -4.97364e-02
2.95761e-15 -8.90779e-16 -5.25010e-02
1.35565e-15 -2.68343e-15 -5.34334e-02
2.47595e-15 -7.66185e-16 -5.25005e-02
1.34018e-15 -2.33145e-15 -4.97357e-02
1.81326e-15 -5.98403e-16 -4.52407e-02
1.22194e-15 -1.84542e-15 -3.92011e-02
8.06568e-16 -4.58995e-16 -3.19153e-02
9.34920e-16 -1.17814e-15 -2.38139e-02
2.61535e-16 -2.61885e-16 -1.55284e-02
3.45884e-16 -4.10482e-16 -7.93449e-03
1.14406e-16 6.94854e-18 -2.22506e-03
0.00000e+00 0.00000e+00 0.00000e+00
0.00000e+00 0.00000e+00 0.00000e+00
7.45093e-17 -2.25002e-16 -2.11849e-03
1.01722e-15 -2.27390e-16 -7.54630e-03
3.26172e-16 -9.94245e-16 -1.47550e-02
1.88658e-15 -5.77144e-16 -2.26088e-02
6.86647e-16 -1.83318e-15 -3.02776e-02
2.47862e-15 -8.47256e-16 -3.71708e-02
8.39960e-16 -2.64938e-15 -4.28796e-02
2.66435e-15 -8.92801e-16 -4.71260e-02
1.11926e-15 -2.69851e-15 -4.97364e-02
2.55102e-15 -7.08879e-16 -5.06166e-02
1.03265e-15 -2.35940e-15 -4.97358e-02
1.90388e-15 -6.02450e-16 -4.71248e-02
1.05157e-15 -1.88033e-15 -4.28784e-02
1.07581e-15 -3.65446e-16 -3.71710e-02
8.62442e-16 -1.24538e-15 -3.02757e-02
3.78458e-16 -3.13898e-16 -2.26070e-02
4.73084e-16 -5.78005e-16 -1.47539e-02
1.69881e-16 -9.79551e-17 -7.54563e-03
8.60844e-17 -4.54792e-17 -2.11755e-03
0.00000e+00 0.00000e+00 0.00000e+00
0.00000e+00 0.00000e+00 0.00000e+00
4.48837e-16 -1.83246e-16 -1.94138e-03
1.69692e-16 -6.10000e-16 -6.90753e-03
1.24928e-15 -3.74196e-16 -1.34853e-02
3.72662e-16 -1.46713e-15 -2.06371e-02
1.82438e-15 -7.82558e-16 -2.76074e-02
6.09873e-16 -2.14349e-15 -3.38634e-02
2.25592e-15 -9.30954e-16 -3.90364e-02
8.29906e-16 -2.53216e-15 -4.28802e-02
2.28815e-15 -7.69747e-16 -4.52412e-02
8.31105e-16 -2.36657e-15 -4.60374e-02
2.02799e-15 -5.11759e-16 -4.52411e-02
7.33386e-16 -1.93644e-15 -4.28798e-02
1.29126e-15 -4.78899e-16 -3.90351e-02
7.60964e-16 -1.24885e-15 -3.38612e-02
5.92817e-16 -2.68428e-16 -2.76064e-02
5.24604e-16 -6.95086e-16 -2.06336e-02
1.81747e-16 -2.57880e-16 -1.34839e-02
1.83753e-16 -1.22880e-16 -6.90695e-03
8.84843e-17 -5.07318e-17 -1.94153e-03
0.00000e+00 0.00000e+00 0.00000e+00
0.00000e+00 0.00000e+00 0.00000e+00
-1.88128e-17 -3.17630e-16 -1.70000e-03
6.46634e-16 -3.21219e-16 -6.03657e-03
1.73923e-16 -9.13371e-16 -1.17614e-02
1.33641e-15 -5.80973e-16 -1.79677e-02
3.97460e-16 -1.77002e-15 -2.40007e-02
1.71356e-15 -8.25088e-16 -2.94048e-02
5.29213e-16 -2.26161e-15 -3.38621e-02
1.86827e-15 -7.65144e-16 -3.71719e-02
6.84193e-16 -2.21397e-15 -3.92012e-02
1.84392e-15 -5.20469e-16 -3.98867e-02
4.69124e-16 -1.90395e-15 -3.92022e-02
1.41747e-15 -3.77151e-16 -3.71717e-02
4.48482e-16 -1.47840e-15 -3.38629e-02
7.37561e-16 -1.78490e-16 -2.94027e-02
4.20243e-16 -7.64222e-16 -2.39988e-02
3.11931e-16 -2.26697e-16 -1.79653e-02
1.96293e-16 -1.82938e-16 -1.17603e-02
6.28241e-17 -2.56351e-16 -6.03593e-03
3.02527e-17 1.80080e-17 -1.69968e-03
0.00000e+00 0.00000e+00 0.00000e+00
0.00000e+00 0.00000e+00 0.00000e+00
2.70675e-16 -2.06326e-16 -1.40042e-03
4.95038e-17 -5.42547e-16 -4.96343e-03
8.85213e-16 -5.14771e-16 -9.65094e-03
2.96989e-16 -1.22212e-15 -1.47134e-02
1.31134e-15 -6.75337e-16 -1.96199e-02
3.55553e-16 -1.80264e-15 -2.40005e-02
1.43150e-15 -6.79582e-16 -2.76065e-02
3.68892e-16 -2.04222e-15 -3.02777e-02
1.39390e-15 -4.69738e-16 -3.19140e-02
2.28501e-16 -1.76890e-15 -3.24651e-02
1.27824e-15 -3.21504e-16 -3.19135e-02
1.76877e-16 -1.56867e-15 -3.02773e-02
8.27422e-16 -9.24611e-17 -2.76061e-02
2.63083e-16 -1.02072e-15 -2.40010e-02
4.14107e-16 3.76746e-17 -1.96183e-02
1.20802e-16 -3.38769e-16 -1.47123e-02
6.97541e-17 -8.39242e-17 -9.64867e-03
3.51470e-17 -4.48840e-17 -4.96241e-03
-4.94697e-17 -7.72877e-18 -1.40057e-03
0.00000e+00 0.00000e+00 0.00000e+00
0.00000e+00 0.00000e+00 0.00000e+00
7.96403e-17 -2.77728e-16 -1.05704e-03
5.63230e-16 -2.71386e-16 -3.74072e-03
1.35935e-16 -8.06273e-16 -7.26298e-03
9.34344e-16 -5.35435e-16 -1.10546e-02
2.78139e-16 -1.31054e-15 -1.47127e-02
1.10263e-15 -6.09882e-16 -1.79664e-02
2.71242e-16 -1.65858e-15 -2.06354e-02
1.14497e-15 -4.40490e-16 -2.26076e-02
1.18185e-16 -1.56001e-15 -2.38133e-02
9.52997e-16 -2.33366e-16 -2.42191e-02
6.50649e-19 -1.47546e-15 -2.38131e-02
7.83268e-16 1.48706e-17 -2.26074e-02
1.71556e-17 -1.13873e-15 -2.06365e-02
3.91266e-16 7.38523e-17 -1.79664e-02
-9.89021e-18 -5.60415e-16 -1.47122e-02
2.49873e-16 1.86844e-16 -1.10526e-02
-5.25652e-17 -1.08472e-16 -7.26290e-03
-1.17366e-16 8.53041e-17 -3.74133e-03
-5.59121e-17 3.60112e-17 -1.05680e-03
0.00000e+00 0.00000e+00 0.00000e+00
0.00000e+00 0.00000e+00 0.00000e+00
1.96579e-16 -2.25892e-16 -6.93532e-04
1.28250e-16 -4.07395e-16 -2.45806e-03
6.82975e-16 -3.68332e-16 -4.77582e-03
2.18121e-16 -8.80192e-16 -7.26306e-03
7.56944e-16 -3.99260e-16 -9.64988e-03
8.46444e-17 -1.19136e-15 -1.17603e-02
7.30403e-16 -4.83975e-16 -1.34842e-02
3.25821e-17 -1.22020e-15 -1.47535e-02
7.24926e-16 -1.09953e-16 -1.55298e-02
-6.05070e-17 -1.13398e-15 -1.57906e-02
5.22977e-16 -1.01562e-16 -1.55288e-02
-1.44626e-16 -9.50494e-16 -1.47565e-02
3.37564e-16 1.01151e-16 -1.34850e-02
-1.80483e-16 -6.35364e-16 -1.17607e-02
1.22811e-16 1.78836e-16 -9.64921e-03
-2.66879e-16 -2.55063e-16 -7.26225e-03
-1.40268e-18 2.41822e-16 -4.77529e-03
-8.87308e-17 6.27979e-18 -2.45810e-03
-9.35879e-17 7.49238e-17 -6.92574e-04
0.00000e+00 0.00000e+00 0.00000e+00
0.00000e+00 0.00000e+00 0.00000e+00
5.15872e-17 -1.74153e-16 -3.47840e-04
3.60341e-16 -2.83601e-16 -1.25434e-03
1.80826e-16 -4.05424e-16 -2.45770e-03
4.64523e-16 -3.09165e-16 -3.74158e-03
9.92467e-17 -6.99151e-16 -4.96291e-03
4.69967e-16 -2.90056e-16 -6.03612e-03
-1.41869e-17 -8.65124e-16 -6.90656e-03