<?xml version="1.0"?>
<VTKFile type="UnstructuredGrid" version="0.1" byte_order="LittleEndian">
<UnstructuredGrid>
<Piece NumberOfPoints="441" NumberOfCells="400">
<Points>
<DataArray type="Float32" NumberOfComponents="3" format="ascii">
5.00000e-01 5.00000e-01 0.00000e+00
4.50000e-01 5.00000e-01 0.00000e+00
4.00000e-01 5.00000e-01 0.00000e+00
3.50000e-01 5.00000e-01 0.00000e+00
3.00000e-01 5.00000e-01 0.00000e+00
2.50000e-01 5.00000e-01 0.00000e+00
2.00000e-01 5.00000e-01 0.00000e+00
1.50000e-01 5.00000e-01 0.00000e+00
1.00000e-01 5.00000e-01 0.00000e+00
5.00000e-02 5.00000e-01 0.00000e+00
0.00000e+00 5.00000e-01 0.00000e+00
-5.00000e-02 5.00000e-01 0.00000e+00
-1.00000e-01 5.00000e-01 0.00000e+00
-1.50000e-01 5.00000e-01 0.00000e+00
-2.00000e-01 5.00000e-01 0.00000e+00
-2.50000e-01 5.00000e-01 0.00000e+00
-3.00000e-01 5.00000e-01 0.00000e+00
-3.50000e-01 5.00000e-01 0.00000e+00
-4.00000e-01 5.00000e-01 0.00000e+00
-4.50000e-01 5.00000e-01 0.00000e+00
-5.00000e-01 5.00000e-01 0.00000e+00
5.00000e-01 4.50000e-01 0.00000e+00
4.50000e-01 4.50000e-01 0.00000e+00
4.00000e-01 4.50000e-01 0.00000e+00
3.50000e-01 4.50000e-01 0.00000e+00
3.00000e-01 4.50000e-01 0.00000e+00
2.50000e-01 4.50000e-01 0.00000e+00
2.00000e-01 4.50000e-01 0.00000e+00
1.50000e-01 4.50000e-01 0.00000e+00
1.00000e-01 4.50000e-01 0.00000e+00
5.00000e-02 4.50000e-01 0.00000e+00
0.00000e+00 4.50000e-01 0.00000e+00
-5.00000e-02 4.50000e-01 0.00000e+00
-1.00000e-01 4.50000e-01 0.00000e+00
-1.50000e-01 4.50000e-01 0.00000e+00
-2.00000e-01 4.50000e-01 0.00000e+00
-2.50000e-01 4.50000e-01 0.00000e+00
-3.00000e-01 4.50000e-01 0.00000e+00
-3.50000e-01 4.50000e-01 0.00000e+00
-4.00000e-01 4.50000e-01 0.00000e+00
-4.50000e-01 4.50000e-01 0.00000e+00
-5.00000e-01 4.50000e-01 0.00000e+00
5.00000e-01 4.00000e-01 0.00000e+00
4.50000e-01 4.00000e-01 0.00000e+00
4.00000e-01 4.00000e-01 0.00000e+00
3.50000e-01 4.00000e-01 0.00000e+00
3.00000e-01 4.00000e-01 0.00000e+00
2.50000e-01 4.00000e-01 0.00000e+00
2.00000e-01 4.00000e-01 0.00000e+00
1.50000e-01 4.00000e-01 0.00000e+00
1.00000e-01 4.00000e-01 0.00000e+00
5.00000e-02 4.00000e-01 0.00000e+00
0.00000e+00 4.00000e-01 0.00000e+00
-5.00000e-02 4.00000e-01 0.00000e+00
-1.00000e-01 4.00000e-01 0.00000e+00
-1.50000e-01 4.00000e-01 0.00000e+00
-2.00000e-01 4.00000e-01 0.00000e+00
-2.50000e-01 4.00000e-01 0.00000e+00
-3.00000e-01 4.00000e-01 0.00000e+00
-3.50000e-01 4.00000e-01 0.00000e+00
-4.00000e-01 4.00000e-01 0.00000e+00
-4.50000e-01 4.00000e-01 0.00000e+00
-5.00000e-01 4.00000e-01 0.00000e+00
5.00000e-01 3.50000e-01 0.00000e+00
4.50000e-01 3.50000e-01 0.00000e+00
4.00000e-01 3.50000e-01 0.00000e+00
3.50000e-01 3.50000e-01 0.00000e+00
3.00000e-01 3.50000e-01 0.00000e+00
2.50000e-01 3.50000e-01 0.00000e+00
2.00000e-01 3.50000e-01 0.00000e+00
1.50000e-01 3.50000e-01 0.00000e+00
1.00000e-01 3.50000e-01 0.00000e+00
5.00000e-02 3.50000e-01 0.00000e+00
0.00000e+00 3.50000e-01 0.00000e+00
-5.00000e-02 3.50000e-01 0.00000e+00
-1.00000e-01 3.50000e-01 0.00000e+00
-1.50000e-01 3.50000e-01 0.00000e+00
-2.00000e-01 3.50000e-01 0.00000e+00
-2.50000e-01 3.50000e-01 0.00000e+00
-3.00000e-01 3.50000e-01 0.00000e+00
-3.50000e-01 3.50000e-01 0.00000e+00
-4.00000e-01 3.50000e-01 0.00000e+00
-4.50000e-01 3.50000e-01 0.00000e+00
-5.00000e-01 3.50000e-01 0.00000e+00
5.00000e-01 3.00000e-01 0.00000e+00
4.50000e-01 3.00000e-01 0.00000e+00
4.00000e-01 3.00000e-01 0.00000e+00
3.50000e-01 3.00000e-01 0.00000e+00
3.00000e-01 3.00000e-01 0.00000e+00
2.50000e-01 3.00000e-01 0.00000e+00
2.00000e-01 3.00000e-01 0.00000e+00
1.50000e-01 3.00000e-01 0.00000e+00
1.00000e-01 3.00000e-01 0.00000e+00
5.00000e-02 3.00000e-01 0.00000e+00
0.00000e+00 3.00000e-01 0.00000e+00
-5.00000e-02 3.00000e-01 0.00000e+00
-1.00000e-01 3.00000e-01 0.00000e+00
-1.50000e-01 3.00000e-01 0.00000e+00
-2.00000e-01 3.00000e-01 0.00000e+00
-2.50000e-01 3.00000e-01 0.00000e+00
-3.00000e-01 3.00000e-01 0.00000e+00
-3.50000e-01 3.00000e-01 0.00000e+00
-4.00000e-01 3.00000e-01 0.00000e+00
-4.50000e-01 3.00000e-01 0.00000e+00
-5.00000e-01 3.00000e-01 0.00000e+00
5.00000e-01 2.50000e-01 0.00000e+00
4.50000e-01 2.50000e-01 0.00000e+00
4.00000e-01 2.50000e-01 0.00000e+00
3.50000e-01 2.50000e-01 0.00000e+00
3.00000e-01 2.50000e-01 0.00000e+00
2.50000e-01 2.50000e-01 0.00000e+00
2.00000e-01 2.50000e-01 0.00000e+00
1.50000e-01 2.50000e-01 0.00000e+00
1.00000e-01 2.50000e-01 0.00000e+00
5.00000e-02 2.50000e-01 0.00000e+00
0.00000e+00 2.50000e-01 0.00000e+00
-5.00000e-02 2.50000e-01 0.00000e+00
-1.00000e-01 2.50000e-01 0.00000e+00
-1.50000e-01 2.50000e-01 0.00000e+00
-2.00000e-01 2.50000e-01 0.00000e+00
-2.50000e-01 2.50000e-01 0.00000e+00
-3.00000e-01 2.50000e-01 0.00000e+00
-3.50000e-01 2.50000e-01 0.00000e+00
-4.00000e-01 2.50000e-01 0.00000e+00
-4.50000e-01 2.50000e-01 0.00000e+00
-5.00000e-01 2.50000e-01 0.00000e+00
5.00000e-01 2.00000e-01 0.00000e+00
4.50000e-01 2.00000e-01 0.00000e+00
4.00000e-01 2.00000e-01 0.00000e+00
3.50000e-01 2.00000e-01 0.00000e+00
3.00000e-01 2.00000e-01 0.00000e+00
2.50000e-01 2.00000e-01 0.00000e+00
2.00000e-01 2.00000e-01 0.00000e+00
1.50000e-01 2.00000e-01 0.00000e+00
1.00000e-01 2.00000e-01 0.00000e+00
5.00000e-02 2.00000e-01 0.00000e+00
0.00000e+00 2.00000e-01 0.00000e+00
-5.00000e-02 2.00000e-01 0.00000e+00
-1.00000e-01 2.00000e-01 0.00000e+00
-1.50000e-01 2.00000e-01 0.00000e+00
-2.00000e-01 2.00000e-01 0.00000e+00
-2.50000e-01 2.00000e-01 0.00000e+00
-3.00000e-01 2.00000e-01 0.00000e+00
-3.50000e-01 2.00000e-01 0.00000e+00
-4.00000e-01 2.00000e-01 0.00000e+00
-4.50000e-01 2.00000e-01 0.00000e+00
-5.00000e-01 2.00000e-01 0.00000e+00
5.00000e-01 1.50000e-01 0.00000e+00
4.50000e-01 1.50000e-01 0.00000e+00
4.00000e-01 1.50000e-01 0.00000e+00
3.50000e-01 1.50000e-01 0.00000e+00
3.00000e-01 1.50000e-01 0.00000e+00
2.50000e-01 1.50000e-01 0.00000e+00
2.00000e-01 1.50000e-01 0.00000e+00
1.50000e-01 1.50000e-01 0.00000e+00
1.00000e-01 1.50000e-01 0.00000e+00
5.00000e-02 1.50000e-01 0.00000e+00
0.00000e+00 1.50000e-01 0.00000e+00
-5.00000e-02 1.50000e-01 0.00000e+00
-1.00000e-01 1.50000e-01 0.00000e+00
-1.50000e-01 1.50000e-01 0.00000e+00
-2.00000e-01 1.50000e-01 0.00000e+00
-2.50000e-01 1.50000e-01 0.00000e+00
-3.00000e-01 1.50000e-01 0.00000e+00
-3.50000e-01 1.50000e-01 0.00000e+00
-4.00000e-01 1.50000e-01 0.00000e+00
-4.50000e-01 1.50000e-01 0.00000e+00
-5.00000e-01 1.50000e-01 0.00000e+00
5.00000e-01 1.00000e-01 0.00000e+00
4.50000e-01 1.00000e-01 0.00000e+00
4.00000e-01 1.00000e-01 0.00000e+00
3.50000e-01 1.00000e-01 0.00000e+00
3.00000e-01 1.00000e-01 0.00000e+00
2.50000e-01 1.00000e-01 0.00000e+00
2.00000e-01 1.00000e-01 0.00000e+00
1.50000e-01 1.00000e-01 0.00000e+00
1.00000e-01 1.00000e-01 0.00000e+00
5.00000e-02 1.00000e-01 0.00000e+00
0.00000e+00 1.00000e-01 0.00000e+00
-5.00000e-02 1.00000e-01 0.00000e+00
-1.00000e-01 1.00000e-01 0.00000e+00
-1.50000e-01 1.00000e-01 0.00000e+00
-2.00000e-01 1.00000e-01 0.00000e+00
-2.50000e-01 1.00000e-01 0.00000e+00
-3.00000e-01 1.00000e-01 0.00000e+00
-3.50000e-01 1.00000e-01 0.00000e+00
-4.00000e-01 1.00000e-01 0.00000e+00
-4.50000e-01 1.00000e-01 0.00000e+00
-5.00000e-01 1.00000e-01 0.00000e+00
5.00000e-01 5.00000e-02 0.00000e+00
4.50000e-01 5.00000e-02 0.00000e+00
4.00000e-01 5.00000e-02 0.00000e+00
3.50000e-01 5.00000e-02 0.00000e+00
3.00000e-01 5.00000e-02 0.00000e+00
2.50000e-01 5.00000e-02 0.00000e+00
2.00000e-01 5.00000e-02 0.00000e+00
1.50000e-01 5.00000e-02 0.00000e+00
1.00000e-01 5.00000e-02 0.00000e+00
5.00000e-02 5.00000e-02 0.00000e+00
0.00000e+00 5.00000e-02 0.00000e+00
-5.00000e-02 5.00000e-02 0.00000e+00
-1.00000e-01 5.00000e-02 0.00000e+00
-1.50000e-01 5.00000e-02 0.00000e+00
-2.00000e-01 5.00000e-02 0.00000e+00
-2.50000e-01 5.00000e-02 0.00000e+00
-3.00000e-01 5.00000e-02 0.00000e+00
-3.50000e-01 5.00000e-02 0.00000e+00
-4.00000e-01 5.00000e-02 0.00000e+00
-4.50000e-01 5.00000e-02 0.00000e+00
-5.00000e-01 5.00000e-02 0.00000e+00
5.00000e-01 0.00000e+00 0.00000e+00
4.50000e-01 0.00000e+00 0.00000e+00
4.00000e-01 0.00000e+00 0.00000e+00
3.50000e-01 0.00000e+00 0.00000e+00
3.00000e-01 0.00000e+00 0.00000e+00
2.50000e-01 0.00000e+00 0.00000e+00
2.00000e-01 0.00000e+00 0.00000e+00
1.50000e-01 0.00000e+00 0.00000e+00
1.00000e-01 0.00000e+00 0.00000e+00
5.00000e-02 0.00000e+00 0.00000e+00
0.00000e+00 0.00000e+00 0.00000e+00
-5.00000e-02 0.00000e+00 0.00000e+00
-1.00000e-01 0.00000e+00 0.00000e+00
-1.50000e-01 0.00000e+00 0.00000e+00
-2.00000e-01 0.00000e+00 0.00000e+00
-2.50000e-01 0.00000e+00 0.00000e+00
-3.00000e-01 0.00000e+00 0.00000e+00
-3.50000e-01 0.00000e+00 0.00000e+00
-4.00000e-01 0.00000e+00 0.00000e+00
-4.50000e-01 0.00000e+00 0.00000e+00
-5.00000e-01 0.00000e+00 0.00000e+00
5.00000e-01 -5.00000e-02 0.00000e+00
4.50000e-01 -5.00000e-02 0.00000e+00
4.00000e-01 -5.00000e-02 0.00000e+00
3.50000e-01 -5.00000e-02 0.00000e+00
3.00000e-01 -5.00000e-02 0.00000e+00
2.50000e-01 -5.00000e-02 0.00000e+00
2.00000e-01 -5.00000e-02 0.00000e+00
1.50000e-01 -5.00000e-02 0.00000e+00
1.00000e-01 -5.00000e-02 0.00000e+00
5.00000e-02 -5.00000e-02 0.00000e+00
0.00000e+00 -5.00000e-02 0.00000e+00
-5.00000e-02 -5.00000e-02 0.00000e+00
-1.00000e-01 -5.00000e-02 0.00000e+00
-1.50000e-01 -5.00000e-02 0.00000e+00
-2.00000e-01 -5.00000e-02 0.00000e+00
-2.50000e-01 -5.00000e-02 0.00000e+00
-3.00000e-01 -5.00000e-02 0.00000e+00
-3.50000e-01 -5.00000e-02 0.00000e+00
-4.00000e-01 -5.00000e-02 0.00000e+00
-4.50000e-01 -5.00000e-02 0.00000e+00
-5.00000e-01 -5.00000e-02 0.00000e+00
5.00000e-01 -1.00000e-01 0.00000e+00
4.50000e-01 -1.00000e-01 0.00000e+00
4.00000e-01 -1.00000e-01 0.00000e+00
3.50000e-01 -1.00000e-01 0.00000e+00
3.00000e-01 -1.00000e-01 0.00000e+00
2.50000e-01 -1.00000e-01 0.00000e+00
2.00000e-01 -1.00000e-01 0.00000e+00
1.50000e-01 -1.00000e-01 0.00000e+00
1.00000e-01 -1.00000e-01 0.00000e+00
5.00000e-02 -1.00000e-01 0.00000e+00
0.00000e+00 -1.00000e-01 0.00000e+00
-5.00000e-02 -1.00000e-01 0.00000e+00
-1.00000e-01 -1.00000e-01 0.00000e+00
-1.50000e-01 -1.00000e-01 0.00000e+00
[...]
<PointData>
<DataArray Name="Mises" type="Float32" format="ascii">
0.00000e+00
0.00000e+00
0.00000e+00
0.00000e+00
0.00000e+00
0.00000e+00
0.00000e+00
0.00000e+00
0.00000e+00
0.00000e+00
0.00000e+00
0.00000e+00
0.00000e+00
0.00000e+00
0.00000e+00
0.00000e+00
0.00000e+00
0.00000e+00
0.00000e+00
0.00000e+00
0.00000e+00
0.00000e+00
0.00000e+00
0.00000e+00
0.00000e+00
0.00000e+00
0.00000e+00
0.00000e+00
0.00000e+00
0.00000e+00
0.00000e+00
0.00000e+00
0.00000e+00
0.00000e+00
0.00000e+00
0.00000e+00
0.00000e+00
0.00000e+00
0.00000e+00
0.00000e+00
0.00000e+00
0.00000e+00
0.00000e+00
0.00000e+00
0.00000e+00
0.00000e+00
0.00000e+00
0.00000e+00
0.00000e+00
0.00000e+00
0.00000e+00
0.00000e+00
0.00000e+00
0.00000e+00
0.00000e+00
0.00000e+00
0.00000e+00
0.00000e+00
0.00000e+00
0.00000e+00
0.00000e+00
0.00000e+00
0.00000e+00
0.00000e+00
0.00000e+00
0.00000e+00
0.00000e+00
0.00000e+00
0.00000e+00
0.00000e+00
0.00000e+00
0.00000e+00
0.00000e+00
0.00000e+00
0.00000e+00
0.00000e+00
0.00000e+00
0.00000e+00
0.00000e+00
0.00000e+00
0.00000e+00
0.00000e+00
0.00000e+00
0.00000e+00
0.00000e+00
0.00000e+00
0.00000e+00
0.00000e+00
0.00000e+00
0.00000e+00
0.00000e+00
0.00000e+00
0.00000e+00
0.00000e+00
0.00000e+00
0.00000e+00
0.00000e+00
0.00000e+00
0.00000e+00
0.00000e+00
0.00000e+00
0.00000e+00
0.00000e+00
0.00000e+00
0.00000e+00
0.00000e+00
0.00000e+00
0.00000e+00
0.00000e+00
0.00000e+00
0.00000e+00
0.00000e+00
0.00000e+00
0.00000e+00
0.00000e+00
0.00000e+00
0.00000e+00
0.00000e+00
0.00000e+00
0.00000e+00
0.00000e+00
0.00000e+00
0.00000e+00
0.00000e+00
0.00000e+00
0.00000e+00
0.00000e+00
0.00000e+00
0.00000e+00
0.00000e+00
0.00000e+00
0.00000e+00
0.00000e+00
0.00000e+00
0.00000e+00
0.00000e+00
0.00000e+00
0.00000e+00
0.00000e+00
0.00000e+00
0.00000e+00
0.00000e+00
0.00000e+00
0.00000e+00
0.00000e+00
0.00000e+00
0.00000e+00
0.00000e+00
0.00000e+00
0.00000e+00
0.00000e+00
0.00000e+00
0.00000e+00
0.00000e+00
0.00000e+00
0.00000e+00
0.00000e+00
0.00000e+00
0.00000e+00
0.00000e+00
0.00000e+00
0.00000e+00
0.00000e+00
0.00000e+00
0.00000e+00
0.00000e+00
0.00000e+00
0.00000e+00
0.00000e+00
0.00000e+00
0.00000e+00
0.00000e+00
0.00000e+00
0.00000e+00
0.00000e+00
0.00000e+00
0.00000e+00
0.00000e+00
0.00000e+00
0.00000e+00
0.00000e+00
0.00000e+00
0.00000e+00
0.00000e+00
0.00000e+00
0.00000e+00
0.00000e+00
0.00000e+00
0.00000e+00
0.00000e+00
0.00000e+00
0.00000e+00
0.00000e+00
0.00000e+00
0.00000e+00
0.00000e+00
0.00000e+00
0.00000e+00
0.00000e+00
0.00000e+00
0.00000e+00
0.00000e+00
0.00000e+00
0.00000e+00
0.00000e+00
0.00000e+00
0.00000e+00
0.00000e+00
0.00000e+00
0.00000e+00
0.00000e+00
0.00000e+00
0.00000e+00
0.00000e+00
0.00000e+00
0.00000e+00
0.00000e+00
0.00000e+00
0.00000e+00
0.00000e+00
0.00000e+00
0.00000e+00
0.00000e+00
0.00000e+00
0.00000e+00
0.00000e+00
0.00000e+00
0.00000e+00
0.00000e+00
0.00000e+00
0.00000e+00
0.00000e+00
0.00000e+00
0.00000e+00
0.00000e+00
0.00000e+00
0.00000e+00
0.00000e+00
0.00000e+00
0.00000e+00
0.00000e+00
0.00000e+00
0.00000e+00
0.00000e+00
0.00000e+00
0.00000e+00
0.00000e+00
0.00000e+00
0.00000e+00
0.00000e+00
0.00000e+00
0.00000e+00
0.00000e+00
0.00000e+00
0.00000e+00
0.00000e+00
0.00000e+00
0.00000e+00
0.00000e+00
0.00000e+00
0.00000e+00
0.00000e+00
0.00000e+00
0.00000e+00
0.00000e+00
0.00000e+00
0.00000e+00
0.00000e+00
0.00000e+00
0.00000e+00
0.00000e+00
0.00000e+00
0.00000e+00
0.00000e+00
0.00000e+00
0.00000e+00
0.00000e+00
0.00000e+00
0.00000e+00
0.00000e+00
0.00000e+00
0.00000e+00
0.00000e+00
0.00000e+00
0.00000e+00
0.00000e+00
0.00000e+00
0.00000e+00
0.00000e+00
0.00000e+00
0.00000e+00
0.00000e+00
0.00000e+00
0.00000e+00
0.00000e+00
0.00000e+00
0.00000e+00
0.00000e+00
0.00000e+00
0.00000e+00
0.00000e+00
0.00000e+00
0.00000e+00
0.00000e+00
0.00000e+00
0.00000e+00
0.00000e+00
0.00000e+00
0.00000e+00
0.00000e+00
0.00000e+00
0.00000e+00
0.00000e+00
0.00000e+00
0.00000e+00
0.00000e+00
0.00000e+00
0.00000e+00
0.00000e+00
0.00000e+00
0.00000e+00
0.00000e+00
0.00000e+00
0.00000e+00
0.00000e+00
0.00000e+00
0.00000e+00
0.00000e+00
0.00000e+00
0.00000e+00
0.00000e+00
0.00000e+00
0.00000e+00
0.00000e+00
0.00000e+00
0.00000e+00
0.00000e+00
0.00000e+00
0.00000e+00
0.00000e+00
0.00000e+00
0.00000e+00
0.00000e+00
0.00000e+00
0.00000e+00
0.00000e+00
0.00000e+00
0.00000e+00
0.00000e+00
0.00000e+00
0.00000e+00
0.00000e+00
0.00000e+00
0.00000e+00
0.00000e+00
0.00000e+00
0.00000e+00
0.00000e+00
0.00000e+00
0.00000e+00
0.00000e+00
0.00000e+00
0.00000e+00
0.00000e+00
0.00000e+00
0.00000e+00
0.00000e+00
0.00000e+00
0.00000e+00
0.00000e+00
0.00000e+00
0.00000e+00
0.00000e+00
0.00000e+00
0.00000e+00
0.00000e+00
0.00000e+00
0.00000e+00
0.00000e+00
0.00000e+00
0.00000e+00
0.00000e+00
0.00000e+00
0.00000e+00
0.00000e+00
0.00000e+00
0.00000e+00
0.00000e+00
0.00000e+00
0.00000e+00
0.00000e+00
0.00000e+00
0.00000e+00
0.00000e+00
0.00000e+00
0.00000e+00
0.00000e+00
0.00000e+00
0.00000e+00
0.00000e+00
0.00000e+00
0.00000e+00
0.00000e+00
0.00000e+00
0.00000e+00
0.00000e+00
0.00000e+00
0.00000e+00
0.00000e+00
0.00000e+00
0.00000e+00
0.00000e+00
0.00000e+00
0.00000e+00
0.00000e+00
0.00000e+00
0.00000e+00
0.00000e+00
0.00000e+00
0.00000e+00
0.00000e+00
0.00000e+00
0.00000e+00
0.00000e+00
0.00000e+00
0.00000e+00
0.00000e+00
0.00000e+00
0.00000e+00
0.00000e+00
0.00000e+00
0.00000e+00
0.00000e+00
0.00000e+00
0.00000e+00
0.00000e+00
0.00000e+00
0.00000e+00
0.00000e+00
0.00000e+00
0.00000e+00
</DataArray>
<DataArray Name="Disp" type="Float32" NumberOfComponents="3" format="ascii">
0.00000e+00 0.00000e+00 0.00000e+00
0.00000e+00 0.00000e+00 0.00000e+00
0.00000e+00 0.00000e+00 0.00000e+00
0.00000e+00 0.00000e+00 0.00000e+00
0.00000e+00 0.00000e+00 0.00000e+00
0.00000e+00 0.00000e+00 0.00000e+00
0.00000e+00 0.00000e+00 0.00000e+00
0.00000e+00 0.00000e+00 0.00000e+00
0.00000e+00 0.00000e+00 0.00000e+00
0.00000e+00 0.00000e+00 0.00000e+00
0.00000e+00 0.00000e+00 0.00000e+00
0.00000e+00 0.00000e+00 0.00000e+00
0.00000e+00 0.00000e+00 0.00000e+00
0.00000e+00 0.00000e+00 0.00000e+00
0.00000e+00 0.00000e+00 0.00000e+00
0.00000e+00 0.00000e+00 0.00000e+00
0.00000e+00 0.00000e+00 0.00000e+00
0.00000e+00 0.00000e+00 0.00000e+00
0.00000e+00 0.00000e+00 0.00000e+00
0.00000e+00 0.00000e+00 0.00000e+00
0.00000e+00 0.00000e+00 0.00000e+00
0.00000e+00 0.00000e+00 0.00000e+00
2.30057e-14 3.60441e-15 -9.21179e-05
9.20210e-15 -2.37878e-15 -3.47833e-04
-6.85731e-15 5.12947e-15 -6.93413e-04
2.59622e-15 -1.27280e-15 -1.05735e-03
1.52103e-14 3.21115e-15 -1.40079e-03
-1.77773e-14 -3.77770e-16 -1.70006e-03
-8.70755e-15 2.23504e-15 -1.94172e-03
1.87824e-14 -2.78862e-15 -2.11817e-03
1.87045e-14 -1.48038e-15 -2.22530e-03
2.04787e-14 -1.00829e-15 -2.26121e-03
1.65893e-14 3.08305e-15 -2.22532e-03
2.18322e-14 -2.07241e-15 -2.11818e-03
2.00962e-14 4.34542e-15 -1.94174e-03
3.19604e-15 -2.28883e-15 -1.70007e-03
8.97707e-15 -1.48577e-15 -1.40080e-03
6.95116e-15 -1.49843e-15 -1.05737e-03
2.14515e-15 7.76778e-16 -6.93418e-04
-1.03762e-14 1.22566e-15 -3.47839e-04
2.03105e-14 -1.61200e-15 -9.21170e-05
0.00000e+00 0.00000e+00 0.00000e+00
0.00000e+00 0.00000e+00 0.00000e+00
-1.19831e-14 -3.37038e-15 -3.47828e-04
9.98485e-15 5.66096e-15 -1.25450e-03
-3.67525e-14 1.24455e-15 -2.45827e-03
2.77695e-14 1.06881e-14 -3.74199e-03
1.63505e-14 7.31426e-16 -4.96376e-03
1.41093e-14 5.86142e-15 -6.03669e-03
-8.19624e-15 -4.24135e-15 -6.90790e-03
2.33969e-14 -5.80187e-15 -7.54649e-03
3.42238e-14 -1.64866e-15 -7.93532e-03
2.67643e-14 8.05627e-16 -8.06577e-03
1.54866e-14 -2.68133e-15 -7.93533e-03
-8.05618e-15 5.14325e-15 -7.54652e-03
1.06236e-14 6.16339e-16 -6.90792e-03
-1.79495e-14 6.17245e-15 -6.03675e-03
-5.28286e-15 -5.18580e-15 -4.96383e-03
-5.79296e-15 -3.10858e-15 -3.74205e-03
9.73436e-15 -2.12641e-15 -2.45831e-03
3.12774e-14 3.58584e-16 -1.25450e-03
-2.48836e-15 3.62917e-16 -3.47826e-04
0.00000e+00 0.00000e+00 0.00000e+00
0.00000e+00 0.00000e+00 0.00000e+00
1.96546e-14 -1.12666e-15 -6.93411e-04
-8.06114e-15 6.48105e-16 -2.45827e-03
1.39226e-14 1.18847e-14 -4.77612e-03
-4.93288e-15 -5.28462e-16 -7.26342e-03
4.15766e-14 1.01022e-14 -9.65085e-03
-3.01278e-15 -2.30759e-15 -1.17623e-02
-1.84504e-16 -3.04176e-15 -1.34865e-02
1.91071e-14 -7.36976e-15 -1.47556e-02
1.10617e-14 -3.07305e-16 -1.55304e-02
2.27262e-14 -4.67268e-15 -1.57907e-02
-8.60559e-15 4.13976e-15 -1.55304e-02
-1.36248e-15 3.53112e-15 -1.47557e-02
-1.16065e-14 7.25656e-15 -1.34866e-02
2.23967e-14 -1.34809e-15 -1.17623e-02
1.48988e-14 -1.09788e-15 -9.65094e-03
3.26863e-14 -9.97636e-15 -7.26353e-03
5.98866e-16 -3.32825e-15 -4.77619e-03
4.21548e-15 -1.92827e-16 -2.45831e-03
3.32361e-14 1.90287e-15 -6.93419e-04
0.00000e+00 0.00000e+00 0.00000e+00
0.00000e+00 0.00000e+00 0.00000e+00
-6.52612e-15 1.31933e-15 -1.05735e-03
7.96151e-15 1.47949e-15 -3.74199e-03
-1.73374e-14 4.03563e-16 -7.26343e-03
3.87483e-14 9.63385e-15 -1.10543e-02
-3.26323e-14 5.25300e-15 -1.47137e-02
2.79513e-14 4.23263e-15 -1.79679e-02
1.65936e-14 -7.92053e-15 -2.06375e-02
1.13321e-14 -9.31362e-17 -2.26092e-02
-1.03308e-14 -8.28778e-15 -2.38157e-02
-2.97008e-14 -9.17310e-16 -2.42215e-02
2.17515e-14 1.21783e-15 -2.38157e-02
-2.26449e-14 5.93955e-15 -2.26093e-02
3.65335e-14 3.74237e-15 -2.06376e-02
1.71342e-14 6.65996e-17 -1.79680e-02
2.36048e-14 -3.54131e-15 -1.47138e-02
-1.09850e-14 -7.83792e-15 -1.10544e-02
1.67404e-14 -4.81769e-15 -7.26350e-03
1.61176e-14 -9.20398e-16 -3.74204e-03
1.69445e-14 -6.75215e-16 -1.05736e-03
0.00000e+00 0.00000e+00 0.00000e+00
0.00000e+00 0.00000e+00 0.00000e+00
-1.51048e-14 -1.42814e-15 -1.40078e-03
-3.36013e-14 3.44341e-15 -4.96376e-03
-3.86534e-14 3.46152e-15 -9.65083e-03
-6.10311e-14 6.08411e-16 -1.47137e-02
-5.09742e-15 9.13495e-15 -1.96205e-02
2.49680e-14 -1.79531e-15 -2.40016e-02
3.46208e-16 3.43286e-15 -2.76080e-02
-1.84857e-14 -7.92594e-15 -3.02789e-02
1.01633e-14 -4.29485e-15 -3.19161e-02
-2.12531e-14 -7.32231e-15 -3.24673e-02
-7.42183e-15 -5.76978e-16 -3.19161e-02
3.04974e-14 1.68396e-15 -3.02790e-02
-1.02455e-14 1.42922e-16 -2.76081e-02
1.90573e-14 -1.02617e-15 -2.40017e-02
2.77615e-14 -4.52775e-15 -1.96206e-02
2.61411e-14 1.59299e-15 -1.47138e-02
-1.88339e-14 -7.15356e-15 -9.65090e-03
-9.81952e-15 -7.10725e-15 -4.96380e-03
1.78322e-14 4.20885e-15 -1.40079e-03
0.00000e+00 0.00000e+00 0.00000e+00
0.00000e+00 0.00000e+00 0.00000e+00
-1.54331e-14 3.36975e-15 -1.70006e-03
-2.42656e-14 -8.71017e-16 -6.03667e-03
-3.31738e-14 5.34829e-15 -1.17622e-02
9.98553e-15 4.27688e-15 -1.79680e-02
-1.24216e-14 -3.31780e-15 -2.40016e-02
-1.63506e-14 7.00251e-15 -2.94048e-02
-1.21078e-14 -6.39055e-15 -3.38642e-02
-1.11305e-14 -5.51993e-15 -3.71734e-02
-8.48016e-15 -8.91113e-15 -3.92046e-02
3.05169e-15 -9.31925e-16 -3.98889e-02
2.99934e-14 -8.02679e-15 -3.92046e-02
-5.13233e-15 -3.42490e-15 -3.71735e-02
3.31964e-14 1.75956e-15 -3.38643e-02
1.61894e-16 -4.15760e-15 -2.94049e-02
-7.11748e-15 -4.28250e-16 -2.40017e-02
1.95221e-15 -1.52053e-15 -1.79680e-02
2.84184e-14 -1.11313e-15 -1.17623e-02
-1.41212e-14 -3.82362e-15 -6.03666e-03
-1.98809e-14 -2.31446e-15 -1.70005e-03
0.00000e+00 0.00000e+00 0.00000e+00
0.00000e+00 0.00000e+00 0.00000e+00
-1.58936e-14 -4.12822e-16 -1.94171e-03
-2.28682e-15 5.58570e-15 -6.90786e-03
-6.63019e-15 -2.58838e-15 -1.34865e-02
-3.62741e-15 5.87993e-15 -2.06376e-02
-1.21405e-14 7.73685e-15 -2.76081e-02
1.37658e-14 -6.90020e-15 -3.38642e-02
1.09347e-14 6.58856e-16 -3.90372e-02
-1.76511e-14 -1.00904e-14 -4.28815e-02
-1.04437e-14 -7.28743e-15 -4.52435e-02
2.24683e-14 -9.75370e-15 -4.60397e-02
1.27226e-14 -6.00216e-15 -4.52436e-02
-5.77937e-15 -1.09942e-14 -4.28816e-02
-1.08988e-14 -1.41060e-15 -3.90373e-02
1.14404e-14 6.26554e-15 -3.38643e-02
6.17191e-15 -1.91092e-15 -2.76081e-02
1.68475e-15 -4.71297e-15 -2.06376e-02
2.66092e-14 -2.31530e-15 -1.34865e-02
4.54493e-14 2.38096e-15 -6.90788e-03
-8.15336e-15 -3.58753e-15 -1.94172e-03
0.00000e+00 0.00000e+00 0.00000e+00
0.00000e+00 0.00000e+00 0.00000e+00
-2.21693e-14 3.96800e-16 -2.11816e-03
-1.44678e-14 3.76144e-16 -7.54648e-03
-3.87323e-15 1.74396e-15 -1.47556e-02
-2.25489e-14 6.48727e-15 -2.26093e-02
-1.47279e-14 5.88615e-16 -3.02789e-02
5.19657e-15 1.16770e-15 -3.71733e-02
-2.31112e-15 -6.83747e-15 -4.28815e-02
-2.58834e-14 -4.71860e-15 -4.71278e-02
-8.66921e-15 -1.30061e-14 -4.97385e-02
-6.64889e-15 -6.83438e-15 -5.06189e-02
-2.34048e-14 -1.42963e-14 -4.97387e-02
-2.88281e-15 -4.07031e-15 -4.71279e-02
-1.19122e-14 -2.34203e-15 -4.28817e-02
-1.45463e-14 -1.24973e-15 -3.71735e-02
-2.91807e-15 3.41589e-15 -3.02791e-02
3.12586e-15 -4.41882e-15 -2.26093e-02
-1.74040e-14 -7.30358e-15 -1.47557e-02
6.56643e-15 -5.73558e-16 -7.54650e-03
-7.99448e-15 1.96141e-15 -2.11815e-03
0.00000e+00 0.00000e+00 0.00000e+00
0.00000e+00 0.00000e+00 0.00000e+00
-1.18091e-15 4.20326e-15 -2.22531e-03
9.86830e-15 2.07374e-16 -7.93530e-03
-4.61164e-14 2.23825e-15 -1.55304e-02
-1.10716e-14 7.98066e-16 -2.38157e-02
2.53257e-14 4.76021e-15 -3.19160e-02
-5.44034e-15 -2.95650e-15 -3.92045e-02
1.63637e-14 -2.59370e-15 -4.52436e-02
1.41289e-14 -7.53307e-15 -4.97385e-02
-6.15254e-15 -3.87538e-15 -5.25033e-02
3.02583e-15 -1.29613e-14 -5.34358e-02
-3.51445e-15 -1.35615e-14 -5.25035e-02
5.40633e-15 -3.71883e-15 -4.97388e-02
-1.24473e-14 -4.51976e-15 -4.52438e-02
-1.08613e-14 -1.55122e-15 -3.92048e-02
1.54456e-14 -2.65488e-15 -3.19162e-02
3.99576e-14 -2.07347e-15 -2.38158e-02
1.03460e-14 1.68332e-18 -1.55304e-02
-2.98671e-14 -8.11352e-15 -7.93532e-03
-4.57053e-15 1.53452e-15 -2.22530e-03
0.00000e+00 0.00000e+00 0.00000e+00
0.00000e+00 0.00000e+00 0.00000e+00
1.58934e-14 3.57592e-15 -2.26120e-03
-3.58250e-14 3.86620e-15 -8.06575e-03
4.03165e-15 -5.32866e-15 -1.57907e-02
-7.39916e-15 -1.59738e-15 -2.42214e-02
9.78797e-15 -1.04577e-15 -3.24672e-02
1.10550e-14 -8.56953e-16 -3.98888e-02
2.75232e-14 -2.21973e-15 -4.60397e-02
2.52655e-14 2.30513e-15 -5.06189e-02
-5.94010e-15 -2.65697e-15 -5.34358e-02
-2.98420e-15 -1.42528e-14 -5.43859e-02
-3.85948e-15 -7.83803e-15 -5.34359e-02
-1.17541e-14 -1.32522e-14 -5.06191e-02
-2.30238e-14 -3.94414e-15 -4.60400e-02
1.41769e-14 -1.07171e-15 -3.98891e-02
3.52426e-14 -2.94999e-15 -3.24674e-02
1.36930e-14 -7.34557e-16 -2.42215e-02
4.43929e-14 -4.45167e-15 -1.57907e-02
-3.16395e-14 3.50448e-15 -8.06578e-03
-4.59269e-14 -5.30498e-15 -2.26121e-03
0.00000e+00 0.00000e+00 0.00000e+00
0.00000e+00 0.00000e+00 0.00000e+00
7.77328e-15 3.72322e-15 -2.22532e-03
-1.00636e-14 1.09654e-15 -7.93530e-03
-1.05874e-14 -4.39308e-15 -1.55304e-02
-5.45328e-16 -9.53553e-15 -2.38157e-02
-9.25820e-15 -2.17553e-15 -3.19161e-02
3.73231e-16 1.83917e-16 -3.92045e-02
-1.32581e-14 1.21800e-15 -4.52435e-02
5.82690e-16 3.26245e-15 -4.97386e-02
1.22563e-14 -6.67835e-15 -5.25034e-02
2.55310e-14 -3.17723e-15 -5.34359e-02
-2.59060e-16 -1.25418e-14 -5.25035e-02
-3.87436e-14 -7.11442e-15 -4.97388e-02
-1.93786e-14 -4.08773e-15 -4.52438e-02
-3.04543e-15 -6.10406e-15 -3.92048e-02
1.07644e-14 4.88960e-15 -3.19162e-02
4.44028e-15 -8.60037e-15 -2.38158e-02
3.06432e-14 2.02731e-15 -1.55304e-02
7.10611e-15 -3.72190e-15 -7.93531e-03
1.44090e-14 -3.02361e-16 -2.22532e-03
0.00000e+00 0.00000e+00 0.00000e+00
0.00000e+00 0.00000e+00 0.00000e+00
-2.25639e-15 -2.62830e-15 -2.11816e-03
8.73383e-15 -2.45382e-15 -7.54650e-03
-1.42318e-14 -4.54534e-15 -1.47556e-02
-3.47983e-14 -4.64082e-15 -2.26093e-02
-8.11310e-15 -1.06578e-14 -3.02790e-02
1.69544e-14 3.40444e-15 -3.71734e-02
3.23044e-14 3.67538e-15 -4.28816e-02
3.46262e-14 -1.18022e-15 -4.71278e-02
-1.66058e-14 -3.07377e-16 -4.97387e-02
-1.23680e-14 -3.77143e-15 -5.06190e-02
4.83478e-16 -6.19717e-15 -4.97387e-02
-1.60410e-14 -1.99969e-15 -4.71279e-02
-3.24189e-14 -8.02444e-15 -4.28817e-02
-2.48289e-14 3.14421e-15 -3.71736e-02
-2.39067e-15 -6.29510e-15 -3.02791e-02
9.89027e-16 2.68927e-15 -2.26093e-02
-4.06922e-15 -1.48016e-14 -1.47556e-02
3.71705e-16 3.26090e-16 -7.54651e-03
1.30665e-14 -4.49460e-16 -2.11817e-03
0.00000e+00 0.00000e+00 0.00000e+00
0.00000e+00 0.00000e+00 0.00000e+00
-1.34259e-14 -3.82575e-15 -1.94172e-03
1.25701e-16 -7.09776e-15 -6.90789e-03
1.88125e-14 1.69448e-15 -1.34865e-02
1.53523e-14 -7.75181e-15 -2.06376e-02
4.30339e-14 -4.70126e-15 -2.76082e-02
2.49580e-14 -3.69426e-15 -3.38643e-02
5.00359e-14 5.38159e-15 -3.90373e-02
-3.43544e-14 5.65780e-15 -4.28816e-02
8.71820e-16 1.93676e-15 -4.52437e-02
-2.69196e-15 -6.33327e-15 -4.60398e-02
-7.49812e-15 4.44563e-15 -4.52436e-02
2.31618e-15 -6.41052e-15 -4.28816e-02
-9.54700e-16 6.18088e-16 -3.90372e-02
-1.54785e-15 -6.43229e-15 -3.38643e-02
1.81933e-14 2.66769e-15 -2.76082e-02
3.00594e-14 -1.09809e-14 -2.06376e-02
-4.97468e-14 -6.69418e-15 -1.34865e-02
-2.10600e-14 -8.80315e-15 -6.90790e-03
6.13990e-15 2.77892e-15 -1.94172e-03
0.00000e+00 0.00000e+00 0.00000e+00
0.00000e+00 0.00000e+00 0.00000e+00
-4.47698e-15 -3.00120e-15 -1.70007e-03
-2.97486e-14 -6.16749e-15 -6.03671e-03
1.09254e-14 -6.66079e-15 -1.17623e-02
-3.40495e-14 -5.60830e-15 -1.79680e-02
-6.82861e-15 -5.00128e-15 -2.40016e-02
2.33167e-14 -1.32551e-15 -2.94050e-02
-1.13528e-14 1.25366e-15 -3.38643e-02
7.31629e-16 1.00799e-14 -3.71735e-02
-2.70390e-14 1.01396e-15 -3.92046e-02
-8.04511e-15 2.96752e-16 -3.98889e-02
-1.72092e-14 -2.16730e-15 -3.92046e-02
-3.43829e-14 1.52634e-15 -3.71734e-02
-3.53181e-15 -2.22575e-15 -3.38642e-02
-2.10521e-14 -2.05118e-15 -2.94048e-02
-3.03194e-15 -1.01194e-14 -2.40016e-02
-6.03294e-15 -7.93566e-15 -1.79680e-02
1.69568e-14 -5.90484e-15 -1.17623e-02
2.52418e-14 -1.34852e-15 -6.03670e-03
-2.23558e-14 -5.11110e-15 -1.70005e-03
0.00000e+00 0.00000e+00 0.00000e+00
0.00000e+00 0.00000e+00 0.00000e+00
-5.84476e-15 -3.12099e-15 -1.40082e-03
6.97532e-15 -2.02883e-15 -4.96379e-03
8.81819e-15 -9.17128e-15 -9.65086e-03
3.19974e-15 -7.95135e-15 -1.47138e-02
1.85137e-14 -8.24132e-15 -1.96206e-02
-1.65099e-14 -8.29965e-16 -2.40017e-02
-1.18223e-14 1.16873e-15 -2.76082e-02
2.30451e-14 1.34975e-15 -3.02791e-02
1.03226e-14 8.75062e-15 -3.19161e-02
2.56983e-14 1.72982e-15 -3.24672e-02
1.13158e-14 -3.07052e-15 -3.19160e-02
4.95399e-14 -1.75208e-15 -3.02789e-02
4.61371e-15 -3.23286e-15 -2.76081e-02
2.42443e-14 -2.95710e-15 -2.40016e-02
-4.26446e-16 -5.45793e-15 -1.96205e-02
1.82221e-14 -5.88572e-15 -1.47137e-02
8.95976e-15 -5.75034e-15 -9.65088e-03
6.42699e-15 -4.97057e-15 -4.96378e-03
1.00297e-14 6.74797e-16 -1.40079e-03
0.00000e+00 0.00000e+00 0.00000e+00
0.00000e+00 0.00000e+00 0.00000e+00
2.31301e-14 -2.27405e-15 -1.05736e-03
4.15321e-15 -4.93171e-15 -3.74200e-03
4.84954e-14 -4.13602e-15 -7.26344e-03
2.16169e-14 -1.28685e-14 -1.10543e-02
-1.04729e-14 -6.84550e-15 -1.47138e-02
2.10129e-14 -7.55738e-15 -1.79681e-02
1.41906e-14 -4.36383e-16 -2.06376e-02
1.94392e-14 7.34149e-15 -2.26094e-02
4.61611e-14 8.06366e-15 -2.38157e-02
8.75079e-15 1.95464e-15 -2.42214e-02
2.89741e-14 -9.72544e-16 -2.38156e-02
-8.50998e-16 -9.57572e-15 -2.26092e-02
1.28601e-14 -3.90335e-15 -2.06375e-02
3.30986e-14 -3.61861e-15 -1.79680e-02
-1.49104e-14 -3.10242e-16 -1.47138e-02
-4.88621e-15 -1.63447e-15 -1.10543e-02
1.71694e-15 -7.09779e-15 -7.26344e-03
-8.36170e-15 -2.20151e-15 -3.74200e-03
6.30307e-15 9.69490e-16 -1.05734e-03
0.00000e+00 0.00000e+00 0.00000e+00
0.00000e+00 0.00000e+00 0.00000e+00
8.24617e-15 -4.15846e-15 -6.93426e-04
-8.00811e-15 -1.64941e-15 -2.45828e-03
-2.87102e-15 -9.09056e-15 -4.77613e-03
2.74521e-14 -2.39107e-15 -7.26346e-03
2.00828e-14 -9.64699e-15 -9.65091e-03
2.92983e-14 -4.29972e-15 -1.17623e-02
2.34381e-14 2.00955e-15 -1.34866e-02
7.13384e-15 5.53686e-15 -1.47557e-02
2.46238e-14 5.65129e-15 -1.55304e-02
1.55537e-14 -1.28878e-15 -1.57906e-02
4.29982e-14 -5.60469e-15 -1.55303e-02
4.87052e-14 -6.87862e-15 -1.47556e-02
1.97462e-14 -3.26454e-15 -1.34865e-02
-1.92199e-14 1.67949e-15 -1.17623e-02
3.35239e-15 -2.79466e-15 -9.65090e-03
4.24835e-15 -4.13181e-15 -7.26346e-03
1.24479e-14 3.16049e-15 -4.77614e-03
1.57929e-15 -3.46405e-15 -2.45827e-03
-1.93747e-14 1.81134e-15 -6.93421e-04
0.00000e+00 0.00000e+00 0.00000e+00
0.00000e+00 0.00000e+00 0.00000e+00
2.97973e-14 -2.01459e-15 -3.47825e-04
-2.19734e-14 -4.15555e-15 -1.25448e-03
-5.56100e-15 -3.25207e-16 -2.45828e-03
-7.99074e-15 -9.54347e-15 -3.74202e-03
-2.70401e-15 1.28236e-15 -4.96379e-03